ITEM: TIMESTEP
0
ITEM: NUMBER OF ATOMS
4948
ITEM: BOX BOUNDS pp pp pp
-1.6160000000000000e+01 1.6160000000000000e+01
-1.6160000000000000e+01 1.6160000000000000e+01
-4.0000000000000000e+01 4.0000000000000000e+01
ITEM: ATOMS id type xs ys zs
354 5 0.17102 0.0267652 0.230245
382 5 0.0456477 0.0275163 0.230837
104 5 0.233759 0.0273797 0.205586
100 5 0.107328 0.030207 0.205907
126 5 0.0488194 0.0242866 0.180071
98 5 0.169115 0.0287274 0.181165
389 5 0.234422 0.0891979 0.230849
385 5 0.109267 0.0891658 0.230774
131 5 0.170969 0.092211 0.2061
159 5 0.0458344 0.0901499 0.205887
129 5 0.109441 0.0934949 0.181599
133 5 0.232157 0.0889526 0.1793
386 5 0.170534 0.152583 0.230675
414 5 0.0469416 0.151978 0.230498
136 5 0.233352 0.151186 0.206146
132 5 0.107631 0.153049 0.20608
158 5 0.0426524 0.151418 0.180434
130 5 0.172984 0.149118 0.180966
421 5 0.233458 0.213607 0.230073
417 5 0.109455 0.213025 0.229937
163 5 0.171699 0.214001 0.205277
191 5 0.0456846 0.213862 0.205929
161 5 0.109311 0.213815 0.179686
165 5 0.23495 0.213683 0.18138
358 5 0.296101 0.0271243 0.230588
362 5 0.419871 0.0260776 0.230307
112 5 0.483099 0.0255315 0.206144
108 5 0.356391 0.0282663 0.206195
106 5 0.421631 0.025532 0.180512
102 5 0.294532 0.028029 0.181036
393 5 0.357084 0.0890206 0.230938
397 5 0.484847 0.0893173 0.230452
135 5 0.294725 0.0896832 0.205878
139 5 0.419264 0.0890905 0.206795
141 5 0.480152 0.0903009 0.182483
137 5 0.359781 0.0897091 0.181395
390 5 0.295528 0.152013 0.230729
394 5 0.41923 0.149945 0.2312
144 5 0.480476 0.151752 0.206999
140 5 0.358678 0.152347 0.20609
134 5 0.297274 0.151529 0.181027
138 5 0.420699 0.15403 0.180925
429 5 0.480997 0.215373 0.231049
425 5 0.357047 0.213586 0.231067
171 5 0.420377 0.214729 0.20678
167 5 0.295585 0.214842 0.206076
169 5 0.356338 0.217224 0.18137
173 5 0.481977 0.214328 0.180607
366 5 0.547299 0.0272 0.229959
370 5 0.670814 0.0263132 0.230307
116 5 0.608341 0.0263769 0.205969
120 5 0.731627 0.0271828 0.204839
110 5 0.543659 0.0277924 0.18058
114 5 0.671423 0.0264948 0.179715
405 5 0.73112 0.0912557 0.229119
401 5 0.605777 0.0904815 0.230152
143 5 0.546151 0.089297 0.205776
147 5 0.669525 0.0906622 0.205541
145 5 0.606564 0.0895291 0.181766
149 5 0.737246 0.0912059 0.180301
398 5 0.545432 0.151649 0.229735
402 5 0.668238 0.151886 0.230542
148 5 0.60671 0.153079 0.20536
152 5 0.730957 0.152337 0.204884
146 5 0.668823 0.152951 0.179517
142 5 0.544222 0.150722 0.180463
437 5 0.73096 0.213942 0.230155
433 5 0.607906 0.214815 0.231082
175 5 0.54049 0.213175 0.205981
179 5 0.668528 0.214252 0.205085
181 5 0.731854 0.215553 0.180132
177 5 0.603333 0.212293 0.18076
374 5 0.794833 0.0270477 0.23065
378 5 0.919544 0.0260281 0.230456
124 5 0.857954 0.027253 0.207573
128 5 0.984258 0.0271185 0.205931
122 5 0.921037 0.0240212 0.181094
118 5 0.796495 0.0276825 0.180776
413 5 0.982403 0.0917907 0.229908
409 5 0.858015 0.0886825 0.230864
155 5 0.921233 0.0874548 0.206081
151 5 0.795203 0.0893245 0.205384
157 5 0.981333 0.0879099 0.180925
153 5 0.857846 0.0887158 0.180988
406 5 0.793962 0.15049 0.230474
410 5 0.919191 0.154165 0.230523
160 5 0.982232 0.153575 0.205308
156 5 0.857683 0.150113 0.205848
150 5 0.795954 0.151724 0.180784
154 5 0.921245 0.152172 0.181607
441 5 0.85653 0.217325 0.229355
445 5 0.983536 0.213228 0.230635
183 5 0.793275 0.213866 0.206089
187 5 0.920003 0.216418 0.20577
185 5 0.856716 0.213659 0.181802
189 5 0.983113 0.214953 0.180615
418 5 0.170249 0.274271 0.229644
446 5 0.0470979 0.276552 0.231137
164 5 0.108559 0.277759 0.205731
168 5 0.233496 0.278177 0.206043
162 5 0.170031 0.275927 0.181044
190 5 0.0500758 0.277067 0.179297
449 5 0.108425 0.338159 0.231537
453 5 0.229926 0.339915 0.230314
223 5 0.0481055 0.337877 0.206206
195 5 0.170492 0.336677 0.204917
197 5 0.232145 0.341044 0.179374
193 5 0.108971 0.339755 0.179072
450 5 0.169715 0.402686 0.230307
478 5 0.0435339 0.403026 0.230237
196 5 0.107831 0.402841 0.205537
200 5 0.231441 0.401685 0.205255
194 5 0.169164 0.403425 0.179942
222 5 0.0452117 0.402558 0.180873
481 5 0.105213 0.463807 0.23047
485 5 0.23264 0.462921 0.229758
227 5 0.167127 0.465909 0.205924
255 5 0.0429686 0.467107 0.205707
225 5 0.104235 0.466252 0.180986
229 5 0.228495 0.465637 0.182099
422 5 0.296506 0.276892 0.230445
426 5 0.419509 0.277405 0.230677
172 5 0.358395 0.27941 0.205858
176 5 0.481228 0.27712 0.206284
170 5 0.419437 0.277571 0.180901
166 5 0.296232 0.278393 0.180308
461 5 0.482295 0.339653 0.229958
457 5 0.356736 0.342392 0.228692
203 5 0.42045 0.341925 0.205855
199 5 0.292376 0.340163 0.205043
201 5 0.356441 0.342628 0.179534
205 5 0.481386 0.34092 0.180939
454 5 0.295845 0.402875 0.229918
458 5 0.420899 0.402125 0.229986
208 5 0.483211 0.402415 0.20562
204 5 0.358065 0.404495 0.204931
202 5 0.422776 0.402831 0.179605
198 5 0.293474 0.404906 0.179731
489 5 0.356542 0.463884 0.229956
493 5 0.482367 0.466242 0.231323
231 5 0.295965 0.46504 0.204919
235 5 0.421306 0.464522 0.205495
237 5 0.484274 0.466369 0.178914
233 5 0.358264 0.466607 0.180114
430 5 0.544882 0.275895 0.230561
434 5 0.668836 0.276223 0.230086
180 5 0.606613 0.27514 0.204946
184 5 0.731106 0.275887 0.205824
174 5 0.541452 0.27842 0.180329
178 5 0.667822 0.278932 0.180011
469 5 0.732966 0.34099 0.230041
465 5 0.606921 0.33818 0.229793
211 5 0.669508 0.33803 0.206412
207 5 0.544613 0.341623 0.206462
209 5 0.605883 0.340237 0.182281
213 5 0.73185 0.339369 0.181133
462 5 0.544027 0.403455 0.230911
466 5 0.669838 0.402282 0.22998
212 5 0.606458 0.403054 0.205871
216 5 0.735664 0.402301 0.205832
210 5 0.669733 0.400227 0.180586
206 5 0.544532 0.403332 0.180966
497 5 0.607296 0.465738 0.229837
501 5 0.731934 0.465183 0.230747
243 5 0.66899 0.46237 0.204734
241 5 0.607893 0.462221 0.178889
245 5 0.73281 0.46274 0.180464
239 5 0.544119 0.464714 0.20559
438 5 0.79377 0.276874 0.230135
442 5 0.922069 0.277729 0.231324
192 5 0.982875 0.276197 0.205398
188 5 0.855559 0.278006 0.204739
186 5 0.918375 0.275714 0.180395
182 5 0.794771 0.274595 0.179187
477 5 0.983381 0.340117 0.230331
473 5 0.856177 0.340015 0.228851
215 5 0.793375 0.338006 0.204368
219 5 0.920279 0.337213 0.2054
217 5 0.859972 0.340974 0.179964
221 5 0.9826 0.33858 0.181288
470 5 0.795828 0.403056 0.229398
474 5 0.91962 0.400439 0.228846
220 5 0.858345 0.402402 0.204595
224 5 0.982333 0.401859 0.204715
218 5 0.922307 0.404723 0.180793
214 5 0.795848 0.403026 0.18023
505 5 0.856391 0.463701 0.230056
509 5 0.981213 0.464679 0.229362
247 5 0.794195 0.465291 0.20536
251 5 0.918723 0.465808 0.204369
249 5 0.857561 0.467885 0.179689
253 5 0.983996 0.468531 0.18038
482 5 0.168651 0.529078 0.229994
510 5 0.0437632 0.526277 0.230376
232 5 0.23197 0.527272 0.206572
228 5 0.106517 0.528799 0.205658
226 5 0.165217 0.527313 0.179826
254 5 0.0445145 0.530538 0.180206
257 5 0.106777 0.590077 0.229637
261 5 0.232366 0.587284 0.230722
31 5 0.0430671 0.591492 0.205308
3 5 0.170813 0.589385 0.205244
5 5 0.230941 0.586185 0.181238
1 5 0.106646 0.590578 0.180712
258 5 0.170302 0.651668 0.230667
286 5 0.0448294 0.654057 0.230071
8 5 0.232653 0.650534 0.2053
4 5 0.108209 0.651445 0.204856
2 5 0.170395 0.650845 0.180616
30 5 0.0452221 0.652908 0.180657
293 5 0.229781 0.715325 0.23023
289 5 0.10915 0.712727 0.230348
35 5 0.169567 0.714354 0.205013
63 5 0.0471742 0.715967 0.205431
33 5 0.107199 0.715168 0.180619
37 5 0.231933 0.715189 0.180869
486 5 0.295154 0.52834 0.230008
490 5 0.420199 0.52838 0.230431
240 5 0.485201 0.526227 0.20486
236 5 0.356177 0.52773 0.204922
234 5 0.417996 0.528146 0.180296
230 5 0.295263 0.52715 0.180216
265 5 0.356628 0.590771 0.230212
269 5 0.482222 0.588988 0.229464
7 5 0.294992 0.588812 0.2046
11 5 0.419353 0.59068 0.205263
13 5 0.480519 0.590094 0.179768
9 5 0.3562 0.590569 0.179371
262 5 0.290978 0.65099 0.23006
266 5 0.419712 0.652789 0.229809
16 5 0.481227 0.652121 0.204823
12 5 0.356355 0.651851 0.205105
10 5 0.418789 0.65359 0.179752
6 5 0.291181 0.648934 0.177858
297 5 0.355345 0.715159 0.229802
301 5 0.482765 0.712765 0.228987
39 5 0.292913 0.713372 0.205533
43 5 0.418713 0.713614 0.204487
41 5 0.352628 0.71391 0.180226
45 5 0.482851 0.714857 0.179434
238 5 0.545121 0.525254 0.179463
494 5 0.546295 0.52846 0.229247
498 5 0.669546 0.528378 0.228964
248 5 0.730852 0.522627 0.205617
244 5 0.607318 0.524498 0.204305
242 5 0.670684 0.525932 0.180205
277 5 0.73197 0.590854 0.228587
273 5 0.605892 0.589068 0.229345
15 5 0.544478 0.589383 0.204628
19 5 0.668972 0.589884 0.204918
21 5 0.734719 0.587317 0.181655
17 5 0.609446 0.588775 0.17941
270 5 0.546975 0.652499 0.228979
274 5 0.67036 0.653239 0.228676
20 5 0.605094 0.652084 0.203824
24 5 0.731635 0.650764 0.205069
14 5 0.543412 0.651121 0.17965
18 5 0.671945 0.651382 0.180105
305 5 0.607126 0.713412 0.230018
309 5 0.73379 0.714795 0.229238
51 5 0.669587 0.71518 0.204268
47 5 0.543769 0.715734 0.204298
49 5 0.608137 0.71455 0.179397
53 5 0.735555 0.714164 0.180066
502 5 0.795868 0.528764 0.22932
506 5 0.91989 0.526641 0.229628
252 5 0.857281 0.527842 0.205186
256 5 0.981629 0.53033 0.204733
246 5 0.795939 0.527162 0.181494
250 5 0.920295 0.529878 0.180805
281 5 0.860594 0.590626 0.230254
285 5 0.983597 0.589603 0.229755
27 5 0.921993 0.590908 0.205137
23 5 0.795632 0.590926 0.205273
29 5 0.981906 0.593739 0.178476
25 5 0.856877 0.592317 0.179563
278 5 0.795536 0.651316 0.229996
282 5 0.919569 0.653815 0.229631
28 5 0.856114 0.652792 0.205497
32 5 0.982221 0.653147 0.204302
26 5 0.918061 0.65158 0.17875
22 5 0.793317 0.652443 0.180231
317 5 0.983376 0.715637 0.230387
313 5 0.857877 0.714953 0.229035
59 5 0.921861 0.715842 0.205145
55 5 0.795052 0.714416 0.205416
57 5 0.858984 0.713216 0.180895
61 5 0.982448 0.713665 0.179761
357 5 0.23251 0.966128 0.230979
353 5 0.107238 0.96354 0.230221
127 5 0.0443514 0.964405 0.205811
99 5 0.17277 0.963356 0.206128
97 5 0.108289 0.961888 0.181988
101 5 0.232326 0.963943 0.180082
322 5 0.170874 0.902246 0.230501
350 5 0.0455091 0.903618 0.230432
72 5 0.233942 0.901365 0.205293
68 5 0.108491 0.901037 0.206337
66 5 0.169493 0.900781 0.180339
94 5 0.0452803 0.903128 0.181144
325 5 0.230666 0.839864 0.230412
321 5 0.108067 0.841611 0.230443
95 5 0.0450586 0.841338 0.205686
67 5 0.170598 0.840717 0.205541
69 5 0.233527 0.840431 0.179856
65 5 0.108406 0.837394 0.181415
290 5 0.169422 0.778881 0.230878
318 5 0.045607 0.778388 0.230309
36 5 0.108963 0.777402 0.206635
40 5 0.231299 0.778381 0.205951
34 5 0.169159 0.779259 0.180786
62 5 0.0446946 0.779602 0.180798
109 5 0.483432 0.962427 0.180894
361 5 0.359329 0.963992 0.231078
365 5 0.48218 0.963673 0.22951
103 5 0.294086 0.966195 0.205876
107 5 0.420479 0.964172 0.206622
105 5 0.356182 0.966889 0.180838
326 5 0.294134 0.901317 0.230156
330 5 0.421407 0.900406 0.229307
80 5 0.48509 0.901876 0.20535
76 5 0.356409 0.903288 0.204662
70 5 0.294386 0.90281 0.180906
74 5 0.421317 0.902958 0.180533
329 5 0.358844 0.841395 0.22989
333 5 0.482308 0.838733 0.230197
71 5 0.29397 0.837831 0.206225
75 5 0.420406 0.837891 0.204544
77 5 0.483714 0.839836 0.180451
73 5 0.353841 0.840653 0.180618
294 5 0.291792 0.776354 0.230255
298 5 0.419868 0.774414 0.228939
44 5 0.356552 0.777224 0.205224
48 5 0.482547 0.775348 0.204106
42 5 0.417367 0.777754 0.179642
38 5 0.29231 0.778003 0.179822
373 5 0.734665 0.964612 0.230594
369 5 0.609276 0.964078 0.229976
111 5 0.547803 0.965866 0.205607
115 5 0.671837 0.963442 0.204903
113 5 0.606879 0.964283 0.180192
117 5 0.735648 0.965912 0.179553
334 5 0.546339 0.902296 0.229832
338 5 0.67051 0.902455 0.230646
84 5 0.609054 0.902789 0.205622
88 5 0.733663 0.90222 0.206904
78 5 0.546951 0.901465 0.180624
82 5 0.673699 0.901646 0.179275
337 5 0.610285 0.839185 0.229346
341 5 0.732631 0.839293 0.230154
79 5 0.544825 0.837673 0.20583
83 5 0.671709 0.839065 0.204561
85 5 0.736198 0.839973 0.180318
81 5 0.608053 0.83964 0.181043
302 5 0.544846 0.776058 0.22915
306 5 0.668769 0.77518 0.229373
56 5 0.73308 0.77825 0.205517
52 5 0.608938 0.775397 0.204303
46 5 0.546931 0.778602 0.179729
50 5 0.673267 0.779276 0.178436
381 5 0.983044 0.965888 0.230827
377 5 0.856297 0.963859 0.230885
123 5 0.919332 0.963463 0.206497
119 5 0.795973 0.962278 0.206116
125 5 0.983668 0.964297 0.181824
121 5 0.857913 0.963957 0.180314
342 5 0.79374 0.900272 0.231377
346 5 0.922174 0.902239 0.231122
96 5 0.981968 0.901269 0.205857
92 5 0.857316 0.901466 0.205472
86 5 0.795258 0.903373 0.180648
90 5 0.919606 0.902518 0.180068
345 5 0.859217 0.841583 0.229557
349 5 0.984173 0.840246 0.230682
87 5 0.795338 0.841427 0.206112
91 5 0.920345 0.841427 0.205791
93 5 0.981492 0.843039 0.179197
89 5 0.857831 0.838629 0.180766
310 5 0.793782 0.779404 0.229498
314 5 0.920785 0.77801 0.228784
60 5 0.858053 0.777562 0.206134
64 5 0.985347 0.777335 0.205611
54 5 0.795676 0.776546 0.180266
58 5 0.921043 0.77731 0.180444
356 5 0.109312 0.0261228 0.254422
360 5 0.232686 0.0266251 0.255717
387 5 0.171788 0.0878201 0.255349
415 5 0.0463945 0.0906411 0.255346
576 5 0.0483436 0.0271479 0.279956
392 5 0.234292 0.151438 0.255228
388 5 0.108101 0.149448 0.255491
562 5 0.169625 0.0277794 0.280443
579 5 0.235793 0.0881541 0.279835
577 5 0.109746 0.0895541 0.279556
578 5 0.171227 0.151913 0.280683
419 5 0.16977 0.213249 0.254888
447 5 0.0464981 0.21243 0.255694
595 5 0.232585 0.214159 0.279989
592 5 0.0453526 0.151804 0.279261
593 5 0.107866 0.21241 0.279356
1713 1 0.0800742 0.0209178 0.33899
1714 2 0.102107 0.0210122 0.346986
1715 2 0.0623541 0.0430698 0.342428
1568 2 0.104991 0.025205 0.319276
1567 2 0.129532 0.00277251 0.305946
1573 2 0.0108519 0.0481303 0.355826
1764 1 0.120626 0.0192103 0.37302
1566 1 0.115791 0.0284028 0.30821
1381 2 0.206811 0.000517498 0.312825
1380 1 0.226372 0.0224663 0.311383
1572 1 0.0176377 0.0703056 0.348384
1766 2 0.149184 0.0171711 0.369958
1379 2 0.149647 0.0696259 0.309368
1399 2 0.0719979 0.0635322 0.305745
1574 2 0.0150988 0.0947405 0.355067
2313 1 0.202657 0.0311814 0.369392
2315 2 0.226473 0.0139473 0.36794
1377 1 0.17035 0.0904649 0.310893
1378 2 0.155196 0.11589 0.311303
1400 2 0.0253778 0.0680382 0.305511
1398 1 0.0501326 0.0818089 0.309002
2314 2 0.206351 0.0531225 0.361495
1624 2 0.126082 0.160339 0.350456
1790 2 0.103945 0.0767117 0.370944
1382 2 0.210106 0.045517 0.307742
2338 2 0.190659 0.089132 0.329768
2337 1 0.201423 0.0855724 0.340822
1625 2 0.0940748 0.145232 0.33806
1623 1 0.0968832 0.156976 0.348985
1402 2 0.0813563 0.130455 0.308971
1789 2 0.0967123 0.119462 0.363782
1788 1 0.0960298 0.104206 0.374034
1549 2 0.232896 0.129051 0.309216
2339 2 0.198533 0.1122 0.345928
1548 1 0.22729 0.158032 0.310189
1401 1 0.102715 0.146803 0.31398
1403 2 0.0936933 0.17478 0.312521
1397 2 0.00868544 0.167045 0.307601
1405 2 0.184061 0.190476 0.308999
1808 2 0.0217838 0.23438 0.350068
1806 1 0.00242118 0.229249 0.341254
1406 2 0.18237 0.220737 0.323428
1404 1 0.172285 0.21638 0.312316
1811 2 0.03042 0.224191 0.318834
1809 1 0.0443925 0.210462 0.30986
1575 1 0.183504 0.165247 0.354624
1577 2 0.204076 0.165471 0.36323
1810 2 0.0520925 0.232249 0.302376
2364 1 0.0628674 0.228569 0.365641
2366 2 0.0763758 0.204953 0.360914
1576 2 0.183565 0.192874 0.350312
364 5 0.359024 0.0264583 0.255594
368 5 0.483203 0.0256144 0.254366
391 5 0.295518 0.0884339 0.25574
395 5 0.422574 0.0881888 0.255526
400 5 0.48339 0.15073 0.255123
396 5 0.358988 0.151923 0.255672
566 5 0.420174 0.0266502 0.280902
423 5 0.297027 0.213411 0.255101
427 5 0.419803 0.215444 0.256146
564 5 0.297743 0.0231604 0.280634
581 5 0.358121 0.0880243 0.279939
580 5 0.297334 0.153389 0.280349
599 5 0.48075 0.216639 0.280035
582 5 0.419739 0.150328 0.280307
1550 2 0.252394 0.169592 0.31449
1582 2 0.293697 0.0889071 0.341138
1742 2 0.274951 0.00954899 0.353834
1528 2 0.384558 0.00412715 0.309991
1529 2 0.363263 0.0317707 0.322615
1581 1 0.28294 0.0613208 0.341398
1578 1 0.458418 0.0312132 0.352198
1579 2 0.463295 0.0246608 0.340697
1580 2 0.461103 0.00533075 0.357912
1365 1 0.475444 0.0182897 0.316314
1367 2 0.458951 0.0428539 0.316842
1527 1 0.36051 0.0209899 0.311527
1583 2 0.253542 0.0648298 0.3417
1551 1 0.297614 0.0847396 0.309282
1553 2 0.314131 0.0626698 0.304908
1559 2 0.389483 0.0317033 0.351546
1557 1 0.36873 0.0461519 0.345317
583 5 0.485094 0.0869568 0.280527
1552 2 0.287139 0.0742796 0.319645
1388 2 0.440638 0.115532 0.310131
1386 1 0.427787 0.089036 0.311405
1387 2 0.399817 0.0932583 0.307861
1558 2 0.375977 0.0747342 0.346436
1745 2 0.31125 0.170517 0.337795
1743 1 0.316475 0.150942 0.346522
1385 2 0.339265 0.128128 0.307975
1980 1 0.400086 0.129406 0.342946
1982 2 0.397383 0.123815 0.331247
1770 1 0.484906 0.155258 0.31149
1957 2 0.272122 0.142073 0.366845
1956 1 0.250741 0.151754 0.374142
1744 2 0.345195 0.144277 0.345389
1383 1 0.361157 0.148045 0.307538
1981 2 0.417998 0.152952 0.343502
1769 2 0.491884 0.138386 0.33638
1384 2 0.348455 0.173496 0.31087
2170 2 0.393408 0.189986 0.373097
597 5 0.359448 0.218845 0.280234
1791 1 0.445518 0.205348 0.345505
1408 2 0.413686 0.198899 0.308526
2519 2 0.445534 0.0813211 0.36737
1793 2 0.424535 0.217094 0.352489
1409 2 0.398173 0.243021 0.309567
1792 2 0.443319 0.220238 0.3352
4934 4 0.307458 0.217209 0.320546
1407 1 0.422352 0.226419 0.311226
2171 2 0.383687 0.233097 0.366826
2169 1 0.401118 0.218382 0.374457
2147 2 0.269814 0.243529 0.366155
372 5 0.607277 0.0263983 0.255236
376 5 0.731222 0.0290609 0.254635
399 5 0.545184 0.0908481 0.256656
403 5 0.669495 0.0891161 0.254501
408 5 0.733493 0.14896 0.255063
404 5 0.603796 0.152294 0.254838
570 5 0.667483 0.0267889 0.280147
585 5 0.608123 0.0901535 0.279435
587 5 0.732847 0.0859238 0.280124
584 5 0.543136 0.152494 0.281107
586 5 0.667788 0.154523 0.279622
431 5 0.545048 0.213896 0.254894
435 5 0.671099 0.213872 0.25521
568 5 0.54607 0.0273455 0.28085
601 5 0.606376 0.215066 0.28006
603 5 0.735957 0.215236 0.280087
2547 1 0.5122 0.16014 0.374512
2549 2 0.508131 0.162314 0.362693
1768 2 0.52806 0.108643 0.336716
1772 2 0.5003 0.180219 0.313161
1370 2 0.625316 0.00730649 0.312095
1608 1 0.740443 0.0170606 0.309842
1753 2 0.635644 0.0150505 0.364537
1752 1 0.655739 0.00238502 0.357391
1757 2 0.558991 0.053147 0.372066
1368 1 0.60972 0.0324336 0.312738
1369 2 0.630075 0.0539044 0.312196
1755 1 0.551241 0.0538186 0.360521
2528 2 0.739709 0.0139919 0.335206
1967 2 0.523087 0.0614658 0.311168
1965 1 0.535159 0.0882183 0.312768
1966 2 0.564135 0.0840244 0.310962
1756 2 0.537166 0.0796705 0.3592
1561 2 0.659533 0.0942395 0.356741
2527 2 0.707541 0.0106327 0.348895
1605 1 0.666047 0.0971624 0.311863
1607 2 0.66464 0.0919079 0.323625
1562 2 0.635127 0.124203 0.346047
1560 1 0.654377 0.101761 0.345357
2526 1 0.736367 0.00652573 0.346706
1771 2 0.505534 0.1344 0.309845
1606 2 0.643722 0.115902 0.309742
1631 2 0.706993 0.177502 0.313582
1629 1 0.722892 0.153765 0.310431
2525 2 0.705492 0.121457 0.347274
1767 1 0.514498 0.12948 0.343218
1390 2 0.576885 0.156954 0.305294
1991 2 0.589029 0.19741 0.345922
1389 1 0.603586 0.15289 0.310204
1391 2 0.599282 0.157177 0.321914
1989 1 0.590699 0.168177 0.344125
1990 2 0.562573 0.159577 0.34272
1963 2 0.710095 0.211892 0.353265
2373 1 0.635452 0.218371 0.372333
2375 2 0.615725 0.19667 0.374
1630 2 0.702921 0.132097 0.309233
1799 2 0.649206 0.196266 0.307934
1797 1 0.668903 0.216592 0.311456
1962 1 0.687327 0.214659 0.345695
1964 2 0.66345 0.215986 0.352754
1413 1 0.542091 0.220722 0.312729
2524 2 0.739023 0.132737 0.334871
2523 1 0.733776 0.13008 0.346597
1798 2 0.670355 0.213389 0.323336
1414 2 0.523699 0.241489 0.308538
1415 2 0.547814 0.229101 0.32397
384 5 0.985164 0.0286196 0.2552
380 5 0.855783 0.0254041 0.254619
407 5 0.79624 0.0900121 0.254961
411 5 0.921268 0.0887072 0.254103
416 5 0.982309 0.151418 0.254312
412 5 0.856945 0.150787 0.25494
574 5 0.920645 0.0288559 0.279736
589 5 0.856977 0.0889124 0.280432
588 5 0.795608 0.152458 0.279952
590 5 0.920868 0.151894 0.279353
439 5 0.793809 0.212877 0.253894
443 5 0.920306 0.214469 0.254199
605 5 0.856657 0.216947 0.278395
572 5 0.794046 0.0253678 0.2796
607 5 0.982709 0.21389 0.27976
1619 2 0.976126 0.15981 0.360352
1617 1 0.985955 0.152772 0.34943
1618 2 0.994914 0.178517 0.344752
1783 2 0.999516 0.00838959 0.315005
1807 2 0.977035 0.241039 0.345165
1610 2 0.76464 0.000971039 0.30753
591 5 0.982875 0.087731 0.279319
1953 1 0.929701 0.069816 0.34729
1954 2 0.935874 0.0418989 0.34417
1609 2 0.750395 0.0448552 0.310794
1955 2 0.900399 0.0722043 0.345844
1373 2 0.838985 0.000445081 0.311248
1784 2 0.957189 0.0217983 0.308976
1782 1 0.983759 0.0323952 0.312075
1372 2 0.847338 0.0431067 0.318295
1371 1 0.857376 0.0235356 0.310283
1931 2 0.773286 0.000981612 0.360692
1586 2 0.765028 0.11898 0.310244
1589 2 0.89961 0.119928 0.311651
1590 1 0.837904 0.0678001 0.346945
1592 2 0.827654 0.0483767 0.354972
1591 2 0.827693 0.0940054 0.350694
1584 1 0.7854 0.0977045 0.311485
1585 2 0.811312 0.111982 0.310932
4939 3 0.971749 0.100824 0.329289
1587 1 0.914738 0.0944712 0.311468
1588 2 0.898404 0.076426 0.304651
2332 2 0.91992 0.0608674 0.370665
2335 2 0.803068 0.124012 0.372645
2334 1 0.804555 0.139685 0.36251
2336 2 0.777261 0.138085 0.357911
1395 1 0.981713 0.157166 0.310514
1392 1 0.862318 0.161358 0.308898
1396 2 0.964081 0.180754 0.309247
1393 2 0.882809 0.182467 0.307516
2358 1 0.839709 0.197511 0.34543
2359 2 0.818825 0.218302 0.346624
1634 2 0.768539 0.197851 0.310583
1394 2 0.837067 0.176175 0.310703
2360 2 0.829569 0.17452 0.351762
1822 2 0.771495 0.198075 0.369934
1821 1 0.751696 0.220047 0.369318
1632 1 0.792928 0.214636 0.31028
1614 1 0.926955 0.221366 0.308976
1615 2 0.919939 0.23434 0.319352
1612 2 0.894289 0.229831 0.343534
1633 2 0.783025 0.242295 0.311793
1616 2 0.947646 0.238965 0.304208
1611 1 0.916618 0.248291 0.34105
1929 1 0.795806 0.00048054 0.36846
420 5 0.108146 0.277397 0.255492
424 5 0.233225 0.27881 0.254447
451 5 0.170877 0.341263 0.255647
479 5 0.0447123 0.342093 0.2549
594 5 0.172044 0.276842 0.280569
452 5 0.105014 0.401588 0.254596
456 5 0.233864 0.4028 0.254495
608 5 0.0460899 0.277415 0.279277
611 5 0.232568 0.339457 0.279833
610 5 0.168303 0.404849 0.279824
483 5 0.167617 0.466229 0.254671
511 5 0.0450332 0.465038 0.254994
625 5 0.10404 0.464895 0.280369
624 5 0.0439495 0.403322 0.27954
609 5 0.108046 0.340949 0.279838
627 5 0.231195 0.466011 0.278571
1983 1 0.211038 0.252307 0.349879
1985 2 0.195735 0.277417 0.351304
1984 2 0.235631 0.260544 0.344102
1431 1 0.234159 0.270793 0.31025
1433 2 0.217306 0.25149 0.304251
1426 2 0.10426 0.281387 0.321105
2362 2 0.0806538 0.27077 0.35292
1427 2 0.125586 0.258268 0.307082
1425 1 0.10745 0.281082 0.309211
2361 1 0.0837985 0.287351 0.343088
1428 1 0.173055 0.336636 0.313179
1429 2 0.151165 0.319084 0.309349
1832 2 0.0654311 0.318706 0.309719
2363 2 0.103227 0.308315 0.346222
1430 2 0.197328 0.319741 0.312546
1830 1 0.0474401 0.34223 0.309837
1831 2 0.0657013 0.365546 0.309787
1814 2 0.240046 0.383706 0.361432
1838 2 0.140432 0.377949 0.314187
2006 2 0.0268708 0.371355 0.374094
1641 1 0.0109451 0.395524 0.354816
1642 2 0.00900109 0.371417 0.347909
2034 1 0.199745 0.399793 0.345748
2035 2 0.20755 0.40127 0.334221
2036 2 0.192574 0.427614 0.348651
1978 2 0.0255041 0.309377 0.342824
2598 1 0.163255 0.329519 0.358562
2599 2 0.176827 0.350179 0.351972
2600 2 0.150031 0.344707 0.367335
1815 1 0.226316 0.401619 0.313282
1836 1 0.11684 0.395772 0.31487
1837 2 0.108544 0.394435 0.326344
2575 2 0.0665215 0.397431 0.348932
1643 2 0.000382008 0.417458 0.348002
1817 2 0.206907 0.381994 0.308945
1472 2 0.00553675 0.380035 0.308215
2576 2 0.109852 0.408132 0.354674
2574 1 0.0949915 0.395023 0.345782
1663 2 0.0126819 0.444436 0.314277
1839 1 0.167567 0.460674 0.312495
1841 2 0.193865 0.447134 0.313094
1840 2 0.147815 0.438614 0.312716
1662 1 0.0321378 0.46591 0.311803
1424 2 0.00709096 0.303628 0.314037
2029 2 0.106075 0.476866 0.372345
1664 2 0.0155487 0.490202 0.310416
1845 1 0.207408 0.487106 0.347458
2222 2 0.157144 0.499098 0.350204
1478 2 0.04157 0.472591 0.334507
1476 1 0.0503794 0.476744 0.345807
1477 2 0.0781228 0.486833 0.344848
1846 2 0.228981 0.491338 0.355476
428 5 0.358115 0.278711 0.254462
432 5 0.48325 0.277391 0.254792
455 5 0.294246 0.342593 0.254315
459 5 0.419631 0.340559 0.254546
460 5 0.355619 0.402191 0.254416
464 5 0.481724 0.400229 0.254806
596 5 0.294698 0.276529 0.280251
614 5 0.418714 0.400938 0.280069
487 5 0.295707 0.464818 0.254617
491 5 0.419402 0.464195 0.254499
631 5 0.480386 0.468 0.279805
598 5 0.421091 0.280957 0.279746
615 5 0.482126 0.341144 0.280846
613 5 0.354573 0.341962 0.279608
612 5 0.29175 0.40351 0.279772
629 5 0.3585 0.463984 0.279452
1816 2 0.252668 0.391901 0.309487
1812 1 0.262671 0.368253 0.365975
1813 2 0.275993 0.38706 0.373489
2012 2 0.353616 0.251812 0.340393
1432 2 0.256514 0.254514 0.314533
1600 2 0.344119 0.261818 0.313013
1599 1 0.357367 0.286456 0.309083
1412 2 0.458969 0.267413 0.31029
2010 1 0.359386 0.263628 0.351114
1410 1 0.485808 0.279811 0.311002
1411 2 0.487688 0.28951 0.322281
2011 2 0.375297 0.287882 0.348701
1601 2 0.335093 0.303911 0.305555
1652 2 0.274481 0.319802 0.306065
1628 2 0.398063 0.323631 0.307119
1627 2 0.418153 0.345282 0.321806
2199 1 0.448144 0.313723 0.374351
1650 1 0.293845 0.34011 0.309894
1651 2 0.301272 0.331149 0.320896
1626 1 0.413871 0.347634 0.310005
1795 2 0.312446 0.289027 0.346534
1796 2 0.283295 0.320299 0.354267
1794 1 0.284569 0.29894 0.345995
1986 1 0.395136 0.34076 0.347824
1987 2 0.377435 0.360186 0.35334
1988 2 0.416673 0.335301 0.355736
1873 2 0.330216 0.389394 0.306466
1657 2 0.458665 0.378147 0.307839
1874 2 0.377015 0.390048 0.307217
2583 1 0.358342 0.396429 0.369836
2584 2 0.366194 0.423565 0.37343
1872 1 0.353215 0.407432 0.308393
1656 1 0.477773 0.400757 0.308202
1658 2 0.460661 0.424922 0.308441
2038 2 0.337732 0.44731 0.353531
2393 2 0.484849 0.307319 0.355884
2391 1 0.499632 0.30538 0.345546
1648 2 0.399605 0.447032 0.305914
1819 2 0.305487 0.475552 0.326558
1818 1 0.297579 0.470195 0.315233
1647 1 0.422339 0.462806 0.310179
1867 2 0.433881 0.446349 0.346449
2610 1 0.473458 0.425766 0.359577
1868 2 0.395669 0.472953 0.348516
2611 2 0.491805 0.40806 0.35349
2039 2 0.318632 0.489955 0.352212
2037 1 0.338179 0.47198 0.346914
1820 2 0.316853 0.449758 0.311444
1649 2 0.420081 0.460307 0.322067
1866 1 0.423688 0.473799 0.344654
2196 1 0.271754 0.496177 0.367923
2612 2 0.485856 0.452599 0.358833
436 5 0.607229 0.275945 0.255409
440 5 0.732241 0.275374 0.253306
463 5 0.546148 0.338354 0.254111
467 5 0.667466 0.339296 0.253425
472 5 0.732903 0.401067 0.254663
468 5 0.607387 0.400591 0.25468
600 5 0.543895 0.281174 0.280109
602 5 0.671447 0.27569 0.27927
619 5 0.730156 0.337183 0.27749
495 5 0.545202 0.466069 0.25481
499 5 0.671938 0.465864 0.253951
635 5 0.735957 0.469227 0.279496
633 5 0.610384 0.46723 0.279547
617 5 0.611219 0.338696 0.279572
618 5 0.672317 0.402839 0.278539
616 5 0.546352 0.402804 0.279331
2423 2 0.518607 0.388196 0.327226
2421 1 0.524889 0.385136 0.338854
2392 2 0.505355 0.333476 0.34255
1439 2 0.636768 0.300703 0.316564
2231 2 0.54814 0.266215 0.351653
1773 1 0.692075 0.296172 0.34115
1777 2 0.625525 0.32653 0.370821
1437 1 0.612412 0.283956 0.317311
1438 2 0.620593 0.257711 0.31286
1421 2 0.727301 0.291894 0.323296
1419 1 0.738764 0.27935 0.313496
1420 2 0.718127 0.260028 0.30993
2230 2 0.583298 0.272227 0.339387
2229 1 0.568611 0.251327 0.345441
1776 1 0.647079 0.341571 0.365306
1774 2 0.691542 0.266737 0.342453
1435 2 0.526029 0.317832 0.305584
1436 2 0.570975 0.31812 0.31091
1417 2 0.683963 0.322466 0.297662
2591 2 0.613159 0.390399 0.333698
1775 2 0.672853 0.306202 0.349301
1778 2 0.665046 0.350292 0.374141
1434 1 0.547534 0.335842 0.309423
1418 2 0.695079 0.358584 0.308843
1416 1 0.673762 0.338661 0.306792
2589 1 0.609357 0.398212 0.345136
2001 1 0.709325 0.398111 0.34697
1462 2 0.58514 0.375895 0.3092
2590 2 0.626444 0.37943 0.351295
1461 1 0.61037 0.391397 0.3094
1463 2 0.631674 0.370998 0.308322
2002 2 0.714505 0.401041 0.335249
2003 2 0.721613 0.37213 0.349858
2186 2 0.733487 0.31133 0.351363
1654 2 0.711545 0.423586 0.307921
1653 1 0.727257 0.401819 0.312975
2422 2 0.554258 0.388599 0.339499
2185 2 0.745758 0.331632 0.36768
2227 2 0.531986 0.4712 0.323758
2213 2 0.688518 0.44051 0.361679
2212 2 0.657415 0.475442 0.362708
2211 1 0.680344 0.463404 0.368514
1801 2 0.647076 0.440471 0.310928
2228 2 0.518342 0.438573 0.311349
2226 1 0.538531 0.459839 0.313029
2614 2 0.560046 0.488242 0.34893
1800 1 0.662415 0.465162 0.308637
2420 2 0.616082 0.499538 0.332298
1802 2 0.641747 0.48601 0.307055
2418 1 0.615414 0.491731 0.343837
2613 1 0.531067 0.48214 0.348786
2419 2 0.611694 0.462352 0.343668
2236 2 0.726807 0.491262 0.367649
448 5 0.983035 0.276099 0.255637
444 5 0.856483 0.279518 0.25435
471 5 0.794806 0.341707 0.254262
475 5 0.920491 0.340671 0.254994
623 5 0.982949 0.340864 0.278326
476 5 0.859083 0.401631 0.25424
480 5 0.98161 0.404281 0.254971
620 5 0.793245 0.402835 0.279573
503 5 0.795235 0.463769 0.254319
507 5 0.920639 0.463092 0.254454
621 5 0.855142 0.340288 0.280498
604 5 0.796582 0.278442 0.278991
606 5 0.919312 0.277855 0.28051
622 5 0.918631 0.402429 0.280452
637 5 0.856631 0.465094 0.279238
639 5 0.980689 0.466836 0.280066
1977 1 0.998211 0.320873 0.342945
1423 2 0.965822 0.30171 0.305119
2405 2 0.972987 0.313732 0.365177
2184 1 0.754399 0.328351 0.356312
2166 1 0.82304 0.29254 0.342375
1444 2 0.852672 0.286589 0.322387
1613 2 0.909094 0.273705 0.346389
1443 1 0.857085 0.286087 0.310558
1422 1 0.986015 0.284704 0.310542
1445 2 0.844262 0.260958 0.306917
2167 2 0.797218 0.302986 0.34644
1441 2 0.815462 0.323419 0.308436
1440 1 0.792675 0.342292 0.307914
1442 2 0.76888 0.325606 0.310218
1447 2 0.898454 0.323341 0.309981
2168 2 0.843218 0.303166 0.350008
2382 1 0.887827 0.326522 0.357851
1979 2 0.982138 0.302274 0.336272
2384 2 0.878333 0.319005 0.36877
1446 1 0.918026 0.345326 0.311304
2187 1 0.817022 0.378052 0.36883
2189 2 0.808695 0.349696 0.369608
2383 2 0.891848 0.355829 0.358428
1448 2 0.906387 0.362548 0.319827
1471 2 0.958888 0.384151 0.308621
1639 2 0.881026 0.435492 0.361988
1638 1 0.899306 0.412196 0.361779
1661 2 0.838 0.388988 0.30866