ITEM: TIMESTEP
0
ITEM: NUMBER OF ATOMS
60
ITEM: BOX BOUNDS pp pp pp
-2.5000000000000000e+01 2.5000000000000000e+01
-2.0000000000000000e+01 2.0000000000000000e+01
-2.0000000000000000e+01 2.0000000000000000e+01
ITEM: ATOMS id type xs ys zs
60 1 0.196917 0.00113013 0.133037
12 1 0.371294 0.674708 0.246215
40 1 0.259216 0.483495 0.263372
55 1 0.213525 0.885474 0.329024
17 1 0.17292 0.0850677 0.40716
36 1 0.386931 0.124 0.370312
15 1 0.253962 0.536327 0.379039
47 1 0.103001 0.128932 0.470248
30 1 0.167487 0.469988 0.480762
43 1 0.141018 0.579048 0.464098
54 1 0.384971 0.725629 0.436853
33 1 0.289823 0.811151 0.497323
52 1 0.353509 0.107406 0.578499
27 1 0.0368698 0.300425 0.570325
7 1 0.369881 0.295592 0.54662
10 1 0.198757 0.751849 0.526971
50 1 0.0832074 0.45752 0.622595
3 1 0.305196 0.623628 0.59841
42 1 0.357336 0.0395768 0.807348
11 1 0.1227 0.521375 0.764263
6 1 0.311043 0.0990225 0.902304
49 1 0.0973863 0.821084 0.891111
38 1 0.0221606 0.851535 0.858051
51 1 0.256021 0.986536 0.900631
29 1 0.0265002 0.587378 0.94412
57 1 0.119995 0.904724 0.940377
39 1 0.845887 0.473616 0.0511508
48 1 0.920353 0.36857 0.140059
35 1 0.922405 0.502834 0.133594
34 1 0.989034 0.851478 0.123092
5 1 0.688046 0.258677 0.189719
56 1 0.652421 0.404364 0.172279
4 1 0.983761 0.493133 0.184212
58 1 0.751015 0.977138 0.18472
24 1 0.854282 0.710644 0.301301
22 1 0.728341 0.684278 0.355432
59 1 0.654062 0.848054 0.4104
2 1 0.995471 0.141346 0.464489
31 1 0.927749 0.193671 0.456175
44 1 0.750936 0.459233 0.442578
32 1 0.643558 0.497288 0.472507
16 1 0.726623 0.622186 0.53852
9 1 0.843094 0.969586 0.561869
53 1 0.948425 0.478864 0.662999
21 1 0.684705 0.701622 0.624161
14 1 0.828661 0.939273 0.652027
8 1 0.791424 0.111746 0.737512
20 1 0.681258 0.433981 0.684197
25 1 0.727822 0.516239 0.801208
1 1 0.942019 0.493812 0.788128
37 1 0.861325 0.574795 0.783117
19 1 0.894795 0.652731 0.765868
41 1 0.661092 0.28282 0.915488
28 1 0.915903 0.41608 0.903659
46 1 0.918105 0.621018 0.83716
18 1 0.832733 0.7651 0.911664
45 1 0.892567 0.840162 0.866997
23 1 0.744509 0.502745 0.977857
26 1 0.701729 0.548853 0.925691
13 1 0.953849 0.755038 0.995823
ITEM: TIMESTEP
100000
ITEM: NUMBER OF ATOMS
60
ITEM: BOX BOUNDS pp pp pp
-2.5000000000000000e+01 2.5000000000000000e+01
-2.0000000000000000e+01 2.0000000000000000e+01
-2.0000000000000000e+01 2.0000000000000000e+01
ITEM: ATOMS id type xs ys zs
57 1 0.252778 0.692276 0.0385632
28 1 0.0720246 0.748836 0.00176979
46 1 0.355075 0.161771 0.116465
34 1 0.103695 0.257624 0.121055
60 1 0.323926 0.787513 0.105911
40 1 0.0563204 0.89523 0.122405
2 1 0.210652 0.101986 0.425013
52 1 0.335618 0.0412652 0.450597
51 1 0.164631 0.8638 0.22989
55 1 0.313553 0.89989 0.258995
7 1 0.0643931 0.224828 0.373748
36 1 0.243502 0.657173 0.370978
10 1 0.238022 0.875149 0.391517
35 1 0.0297492 0.621624 0.285009
15 1 0.0553627 0.132837 0.517297
43 1 0.296125 0.726777 0.560947
47 1 0.0875483 1.01366 0.552885
17 1 0.316399 0.407999 0.569511
53 1 0.0439899 0.516588 0.65828
11 1 0.300309 0.530772 0.592308
19 1 0.330695 0.773815 0.653325
3 1 0.325699 0.41604 0.669699
30 1 0.071565 0.614252 0.70028
6 1 0.192047 0.692077 0.703623
26 1 0.024479 0.783468 0.692378
33 1 0.310234 0.24639 0.753871
54 1 0.00971471 0.951942 0.788905
42 1 0.302282 0.0508335 0.890848
27 1 0.149699 0.437763 0.848945
12 1 0.347144 0.552353 0.873996
50 1 0.243524 0.627865 0.850191
49 1 0.115602 0.992984 0.982748
48 1 0.307448 0.157641 0.946155
38 1 0.0545058 0.77854 0.920293
18 1 0.332215 0.920536 0.971066
32 1 0.68957 0.217725 0.0869042
13 1 0.685963 0.49135 0.0116905
24 1 0.952615 0.752946 0.100261
37 1 0.649949 0.769636 0.155119
44 1 0.815239 0.00290613 0.283287
41 1 0.891688 0.270104 0.234098
31 1 0.875611 0.892756 0.240817
59 1 0.691151 0.232604 0.25316
5 1 0.681641 0.306888 0.403443
4 1 0.676113 0.328937 0.487639
9 1 0.770808 0.859957 0.458166
23 1 0.75639 0.466847 0.00901343
1 1 0.988361 0.537875 0.257668
39 1 0.973003 0.577782 0.0179693
22 1 0.813929 0.53227 0.523789
14 1 0.704077 0.824065 0.560901
20 1 0.641498 0.914156 0.517103
16 1 0.795841 0.618661 0.640013
8 1 0.811818 0.72458 0.616056
29 1 0.904422 0.674105 0.620958
56 1 0.866834 0.0225724 0.690659
25 1 0.710626 0.763181 0.652748
45 1 0.877458 0.970912 0.83368
58 1 0.668971 0.0578013 0.812519
21 1 0.655044 0.594026 0.905316
ITEM: TIMESTEP
200000
ITEM: NUMBER OF ATOMS
60
ITEM: BOX BOUNDS pp pp pp
-2.5000000000000000e+01 2.5000000000000000e+01
-2.0000000000000000e+01 2.0000000000000000e+01
-2.0000000000000000e+01 2.0000000000000000e+01
ITEM: ATOMS id type xs ys zs
10 1 0.233244 0.829255 0.0496476
43 1 0.284151 0.969607 0.0672765
26 1 0.136293 0.138457 0.091436
48 1 0.287047 0.371527 0.157624
11 1 0.258687 0.174644 0.191778
46 1 0.147022 0.978883 0.247859
18 1 0.153388 0.0920247 0.365683
17 1 0.113285 0.735485 0.263479
6 1 0.124173 0.605353 0.330309
36 1 0.262324 0.764257 0.436804
19 1 0.378591 0.786083 0.413431
60 1 0.0396379 0.908557 0.380803
55 1 0.307244 0.986487 0.389768
7 1 0.202939 0.476844 0.463183
57 1 0.336431 0.840871 0.0361125
27 1 0.308189 0.12891 0.527673
33 1 0.231051 0.00371152 0.618605
52 1 0.115122 0.333918 0.630972
34 1 0.342884 0.310828 0.659443
2 1 0.260754 0.563106 0.602711
24 1 0.24098 0.333285 0.684685
1 1 0.335701 0.337478 0.820576
12 1 0.346679 0.60769 0.76716
38 1 0.19301 0.794212 0.730733
51 1 0.0987953 0.246792 0.891605
50 1 0.260569 0.281534 0.916167
53 1 0.185868 0.545806 0.909337
3 1 0.173111 0.67942 0.922093
21 1 0.0705886 0.811129 0.908673
30 1 0.044325 0.144596 0.964399
42 1 0.227968 0.410306 0.921294
49 1 0.219693 0.901818 0.95329
47 1 0.967711 0.155253 0.439989
44 1 0.867158 0.900033 0.0406809
5 1 0.836785 0.0937658 0.161783
13 1 0.793025 0.480109 0.100365
23 1 0.770776 0.580946 0.181865
40 1 0.823221 0.913305 0.149163
35 1 0.917892 0.202845 0.221558
28 1 0.836287 0.773664 0.188671
4 1 0.625652 0.29527 0.330965
41 1 0.94609 0.373356 0.378346
59 1 0.644156 0.083748 0.358794
29 1 0.750651 0.569743 0.383636
20 1 0.712495 0.333736 0.554014
39 1 0.941395 0.587125 0.545973
14 1 0.787315 0.0332023 0.635492
22 1 0.653287 0.554532 0.651319
9 1 0.69027 0.658085 0.656997
58 1 0.809188 0.785712 0.642334
15 1 0.717442 0.299052 0.706965
56 1 0.744806 0.0143447 0.741631
32 1 0.662611 0.0273606 0.777166
54 1 0.972296 0.0963715 0.799538
25 1 0.680455 0.750961 0.740302
37 1 0.891584 0.759858 0.809619
45 1 0.865807 0.404785 0.885015
8 1 0.980149 0.818287 0.897469
31 1 0.797956 0.784543 0.984015
16 1 0.767446 0.337862 0.998838
ITEM: TIMESTEP
300000
ITEM: NUMBER OF ATOMS
60
ITEM: BOX BOUNDS pp pp pp
-2.5000000000000000e+01 2.5000000000000000e+01
-2.0000000000000000e+01 2.0000000000000000e+01
-2.0000000000000000e+01 2.0000000000000000e+01
ITEM: ATOMS id type xs ys zs
19 1 0.282547 0.548011 0.0111613
49 1 0.0139396 0.85844 0.0642374
55 1 0.272204 0.104723 0.0913242
36 1 0.212294 0.714614 0.238469
7 1 0.233159 0.848481 0.45123
57 1 0.129984 0.181231 0.347466
10 1 0.199502 0.260872 0.252492
3 1 0.220661 0.429807 0.371217
17 1 0.123345 0.856062 0.327537
26 1 0.166247 0.0712341 0.363802
2 1 0.261538 0.400435 0.447012
39 1 0.116135 0.569771 0.462078
18 1 0.129564 0.0632613 0.581291
6 1 0.211216 0.261038 0.581708
20 1 0.076787 0.67001 0.636126
60 1 0.23706 0.671341 0.601699
43 1 0.287663 0.235607 0.745887
12 1 0.0640892 0.584984 0.751292
27 1 0.220945 0.806538 0.696322
52 1 0.217522 0.13065 0.829585
9 1 0.0585323 0.171074 0.722356
54 1 0.188046 0.257408 0.802321
42 1 0.0560245 0.485221 0.880891
33 1 0.116447 0.951477 0.899098
38 1 0.153714 0.150599 0.981389
21 1 0.0884099 0.313359 0.912423
11 1 0.249239 0.270557 0.983851
24 1 0.210573 0.353124 0.946376
1 1 0.34282 0.363935 0.956813
37 1 0.0140508 0.863356 0.646278
16 1 0.654764 0.393763 0.144599
8 1 0.848879 0.548931 0.0742429
28 1 0.751597 0.681151 0.177811
58 1 0.903512 0.650894 0.176319
4 1 0.75274 0.0683019 0.163416
44 1 0.847783 0.86442 0.217637
5 1 0.893208 0.318242 0.274706
47 1 0.744249 0.0717414 0.417018
59 1 0.845859 0.366141 0.4041
23 1 0.809741 0.941104 0.329694
25 1 0.906881 0.53248 0.460644
40 1 0.717324 0.818763 0.455874
41 1 0.958588 0.914498 0.416892
48 1 0.996461 0.0525521 0.32447
46 1 0.937785 0.163316 0.548524
34 1 0.91736 0.399276 0.50416
50 1 0.950384 0.516896 0.533359
29 1 0.955327 0.519512 0.945981
53 1 0.755554 0.620878 0.6429
51 1 0.876906 0.688732 0.688348
56 1 0.679671 0.0776984 0.646295
15 1 0.708643 0.204287 0.703217
31 1 0.895601 0.636715 0.503818
13 1 0.84277 0.616975 0.792608
30 1 0.951692 0.216062 0.85619
22 1 0.626612 0.282442 0.916052
45 1 0.751033 0.479893 0.875594
32 1 0.642319 0.797219 0.883469
14 1 0.880002 0.146711 0.930741
35 1 0.79161 0.4203 0.973651
ITEM: TIMESTEP
400000
ITEM: NUMBER OF ATOMS
60
ITEM: BOX BOUNDS pp pp pp
-2.5000000000000000e+01 2.5000000000000000e+01
-2.0000000000000000e+01 2.0000000000000000e+01
-2.0000000000000000e+01 2.0000000000000000e+01
ITEM: ATOMS id type xs ys zs
26 1 0.152947 0.864507 0.454187
28 1 0.0559855 0.982161 0.0658
44 1 0.09304 0.0373793 0.144308
14 1 0.0155172 0.124314 0.115138
42 1 0.184603 0.336698 0.154932
43 1 0.319553 0.247736 0.165377
8 1 0.0834394 0.439592 0.115816
29 1 0.201347 0.621183 0.109179
19 1 0.345523 0.646345 0.0937552
21 1 0.177901 0.330203 0.256188
20 1 0.0226924 0.626206 0.198033
1 1 0.373775 0.300471 0.287883
36 1 0.287302 0.545142 0.287828
50 1 0.150143 0.635508 0.239186
27 1 0.0531482 0.75448 0.331295
59 1 0.0351717 0.0893959 0.364387
37 1 0.160138 0.95637 0.334747
10 1 0.224835 0.982498 0.378652
39 1 0.152818 0.600665 0.440095
52 1 0.333675 0.0981412 0.481883
6 1 0.0680568 0.765063 0.929693
9 1 0.225021 0.22677 0.594647
46 1 0.122849 0.532817 0.724518
31 1 0.244106 0.606153 0.660289
24 1 0.177279 0.73369 0.704643
60 1 0.246552 0.705855 0.720219
4 1 0.0645189 0.372154 0.751448
7 1 0.14604 0.434196 0.73682
54 1 0.077358 0.972954 0.871795
11 1 0.109969 0.578489 0.835614
17 1 0.013811 0.887885 0.9045
33 1 0.318734 0.884106 0.898031
38 1 0.228809 0.959676 0.910936
55 1 0.321128 0.368468 0.899391
13 1 0.991861 0.455075 -0.00103026
15 1 0.876145 0.169459 0.219544
16 1 0.950455 0.582364 0.100002
48 1 0.746152 0.881613 0.148399
5 1 0.976546 0.208481 0.209014
49 1 0.919931 0.68684 0.201882
47 1 0.883929 0.949266 0.143499
23 1 0.792511 0.091434 0.271717
22 1 0.672464 0.276069 0.372638
3 1 0.946979 0.809308 0.433482
58 1 0.757279 0.811687 0.491696
2 1 0.965895 0.874281 0.0347702
32 1 0.732735 0.0936855 0.528886
25 1 0.80039 0.255716 0.519904
40 1 0.800002 0.562998 0.577628
41 1 0.817999 0.141371 0.623132
34 1 0.674844 0.242303 0.658348
30 1 0.834074 0.270711 0.666145
18 1 0.908585 0.988852 0.652967
51 1 0.908328 0.151014 0.789793
57 1 0.999735 0.191238 0.754119
45 1 0.664552 0.694345 0.769016
53 1 0.692212 0.60464 0.816116
12 1 0.929542 0.636443 0.782294
56 1 0.925998 0.660537 0.949665
35 1 0.646217 0.959277 0.996954
ITEM: TIMESTEP
500000
ITEM: NUMBER OF ATOMS
60
ITEM: BOX BOUNDS pp pp pp
-2.5000000000000000e+01 2.5000000000000000e+01
-2.0000000000000000e+01 2.0000000000000000e+01
-2.0000000000000000e+01 2.0000000000000000e+01
ITEM: ATOMS id type xs ys zs
33 1 0.208974 0.96657 0.0517263
13 1 0.0731402 0.402453 0.00253274
52 1 0.324266 0.785533 0.450222
37 1 0.300312 0.283943 0.0839465
19 1 0.159695 0.567345 0.107982
21 1 0.147088 0.266644 0.17206
23 1 0.0142242 0.422924 0.245832
46 1 0.24062 0.662318 0.280884
59 1 0.278462 0.0175987 0.303859
47 1 0.120291 0.907357 0.280016
25 1 0.0590456 0.302545 0.372467
50 1 0.35437 0.308256 0.39156
9 1 0.0843533 0.213863 0.42723
10 1 0.166401 0.789505 0.482423
31 1 0.239738 0.539106 0.489068
55 1 0.222684 0.363727 -0.00481503
39 1 0.124294 0.0221336 0.534819
7 1 0.323571 0.271111 0.538838
54 1 0.00723736 0.0487602 0.867077
51 1 0.113693 0.0707913 0.663081
4 1 0.261175 0.0943373 0.650078
1 1 0.353265 0.569939 0.639977
40 1 0.15479 0.646621 0.628152
60 1 0.237324 0.920507 0.64076
24 1 0.194758 0.178797 0.6902
29 1 0.290025 0.235565 0.807464
11 1 0.0990305 0.557274 0.725636
44 1 0.158851 0.688826 0.751543
27 1 0.331809 0.704347 0.913554
38 1 -0.000603475 0.281797 0.967338
42 1 0.106228 0.586104 0.522727
36 1 0.176098 0.417517 0.953766
49 1 0.256557 0.806265 0.98148
48 1 0.732395 0.261843 0.0899551
35 1 0.660832 0.0197335 0.10244
2 1 0.913765 0.110024 0.156026
43 1 0.980557 0.37207 0.114855
45 1 0.775824 0.307219 0.164762
20 1 0.798689 0.817825 0.211596
6 1 0.797775 0.86113 0.312657
28 1 0.968453 0.939811 0.248314
58 1 0.846425 0.800421 0.428881
15 1 0.951319 0.00529532 0.443071
5 1 0.907657 0.091627 0.464682
56 1 0.8873 0.466041 0.481836
41 1 0.908172 0.765555 0.446219
34 1 0.613536 0.93876 0.440031
30 1 0.838381 0.223301 0.509401
26 1 0.949475 0.947053 0.520931
32 1 0.730481 0.0263799 0.658324
3 1 0.846618 0.154456 0.666684
57 1 0.967368 0.369338 0.774617
12 1 0.982221 0.488878 0.864299
17 1 0.977621 0.740031 0.762281
16 1 0.918911 0.884323 0.821839
18 1 0.744961 0.748677 0.959517
53 1 0.792326 0.414211 0.911665
8 1 1.001 0.58188 0.96073
22 1 0.90373 0.581046 1.00112
14 1 0.980761 0.073816 0.993828
ITEM: TIMESTEP
600000
ITEM: NUMBER OF ATOMS
60
ITEM: BOX BOUNDS pp pp pp
-2.5000000000000000e+01 2.5000000000000000e+01
-2.0000000000000000e+01 2.0000000000000000e+01
-2.0000000000000000e+01 2.0000000000000000e+01
ITEM: ATOMS id type xs ys zs
8 1 0.0384954 0.0506968 0.0623659
7 1 0.363038 0.3928 0.0392596
31 1 0.245196 0.707245 0.0140905
40 1 0.363025 0.696588 0.0293464
36 1 0.256523 0.00536131 0.0140946
10 1 0.183218 0.0793741 0.192933
14 1 0.159578 0.137042 0.13293
46 1 0.0356242 0.736726 0.128509
56 1 0.0647419 0.297344 0.261335
19 1 0.194743 0.396266 0.20046
1 1 0.323526 0.576202 0.20535
25 1 0.0168446 0.205398 0.2665
17 1 0.248448 0.347742 0.319484
21 1 0.00669994 0.582209 0.275318
50 1 0.362825 0.544148 0.281766
41 1 0.0534846 0.670866 0.232933
55 1 0.0214967 0.411321 0.413079
11 1 0.185017 0.445013 0.335325
52 1 0.290097 0.459788 0.396035
49 1 0.228998 0.893218 0.405297
39 1 0.0423336 0.659533 0.471957
9 1 0.303977 0.919944 0.457772
3 1 0.00776143 0.828657 0.164587
29 1 0.238055 0.195548 0.491776
42 1 0.0149984 0.62781 0.166664
44 1 0.0719514 0.943664 0.987753
57 1 0.0694153 0.408125 0.518236
54 1 0.0219669 0.875238 0.935323
59 1 0.173423 0.915656 0.585363
32 1 0.127381 0.407134 0.71303
37 1 0.231247 0.444345 0.695953
30 1 0.119849 0.800255 0.696796
4 1 0.22291 0.136326 0.768848
13 1 0.0620596 0.153105 0.822226
60 1 0.378965 0.104118 0.874067
33 1 0.119411 0.0354675 0.943764
47 1 0.0366898 0.926239 0.519513
51 1 0.721528 0.315399 0.0412893
22 1 0.729063 0.406073 0.111354
27 1 0.796449 0.563712 0.0872715
23 1 0.871525 0.5644 0.00694522
38 1 0.959271 0.0514367 0.103345
48 1 0.608207 0.431527 0.434034
53 1 0.670485 0.764018 0.0734408
28 1 0.928966 0.165056 0.251338
20 1 0.690973 0.203774 0.179313
35 1 0.799094 0.60285 0.246121
12 1 0.965001 0.556585 0.434463
26 1 0.86759 0.404541 0.274449
58 1 0.802802 0.412877 0.241859
43 1 0.935042 0.86875 0.30055
6 1 0.615607 0.935243 0.304735
45 1 0.687898 0.608129 0.338071
15 1 0.961582 0.000462036 0.495281
16 1 0.848495 0.207224 0.976032
5 1 0.74718 0.7241 0.592179
2 1 0.682719 0.0397034 0.693311
24 1 0.714129 0.25054 0.724233
34 1 0.85274 0.0525383 0.767986
18 1 0.850335 0.74735 0.81317
ITEM: TIMESTEP
700000
ITEM: NUMBER OF ATOMS
60
ITEM: BOX BOUNDS pp pp pp
-2.5000000000000000e+01 2.5000000000000000e+01
-2.0000000000000000e+01 2.0000000000000000e+01
-2.0000000000000000e+01 2.0000000000000000e+01
ITEM: ATOMS id type xs ys zs
1 1 0.138981 0.320469 -0.00378745
17 1 0.21855 0.297798 0.08659
41 1 0.278672 0.454361 0.0102492
3 1 0.219236 0.641698 0.0219209
11 1 0.354171 0.440836 0.140083
10 1 0.252825 0.445228 0.172928
31 1 0.354485 0.646303 0.234817
60 1 0.205262 0.179246 0.314774
14 1 0.121217 0.459378 0.326043
30 1 0.147214 0.0613281 0.401367
55 1 0.2621 0.0930136 0.391355
52 1 0.162116 0.529049 0.399103
8 1 0.0218004 0.925695 0.154123
59 1 0.22007 0.945475 0.0326261
43 1 0.116089 0.0222161 0.551548
29 1 0.398431 0.175807 0.589899
50 1 0.139096 0.776877 0.520655
4 1 0.211484 0.79722 0.57883
9 1 0.197419 0.315112 0.678738
48 1 0.122645 0.349007 0.60226
37 1 0.114356 0.479029 0.584938
33 1 0.101627 0.150731 0.681472
12 1 0.396018 0.300756 0.707537
40 1 0.106577 0.816254 0.738714
23 1 0.0163046 0.744631 0.807576
19 1 0.332995 0.0824302 0.849968
13 1 0.085795 0.0847076 0.864617
7 1 0.0846517 0.48607 0.945463
18 1 0.212729 0.4847 0.917517
57 1 0.236321 0.551282 0.509336
53 1 0.71938 0.832824 0.0566579
56 1 0.83857 0.125671 0.16389
16 1 0.955279 0.394207 0.0739944
21 1 0.740989 0.766794 0.407315
36 1 0.95479 0.188683 0.17146
58 1 0.778235 0.433848 0.192105
15 1 0.694402 0.729179 0.22965
49 1 0.99708 0.983381 0.21665
25 1 0.878061 0.0919879 0.297075
35 1 0.673623 0.394989 0.342861
28 1 0.830319 0.867081 0.288218
26 1 0.921256 0.337952 0.374632
46 1 0.852496 0.40303 0.461137
2 1 0.780015 0.0572795 0.632981
39 1 0.903671 0.327755 0.601012
27 1 0.898123 0.462223 0.598652
5 1 0.957993 0.572241 0.614739
47 1 0.964246 0.144213 0.677533
20 1 0.67415 0.220579 0.756486
51 1 0.857862 0.863767 0.70097
34 1 0.737415 0.37766 0.76866
42 1 0.873005 0.718879 0.823171
38 1 0.932075 0.826368 0.707547
24 1 0.650808 0.920344 0.797738
6 1 0.739684 0.578243 0.882268
32 1 0.869779 0.563219 0.892163
44 1 0.879749 0.100358 0.911477
54 1 0.841056 0.600552 0.974196
22 1 0.854294 0.837542 0.949184
45 1 0.785406 0.95966 0.948419
ITEM: TIMESTEP
800000
ITEM: NUMBER OF ATOMS
60
ITEM: BOX BOUNDS pp pp pp
-2.5000000000000000e+01 2.5000000000000000e+01
-2.0000000000000000e+01 2.0000000000000000e+01
-2.0000000000000000e+01 2.0000000000000000e+01
ITEM: ATOMS id type xs ys zs
49 1 0.175051 0.399099 0.0339379
3 1 0.28443 0.574938 0.00704783
52 1 0.0270344 0.262289 0.103567
31 1 0.153534 0.575337 0.167255
43 1 0.291917 0.114313 0.24311
60 1 0.212898 0.379009 0.125105
11 1 0.376351 0.433159 0.155901
19 1 0.205817 0.88333 0.159858
17 1 0.237092 0.0188193 0.34285
13 1 0.248937 0.207635 0.273169
26 1 0.181814 0.689464 0.334557
4 1 0.028746 0.913509 0.300324
46 1 0.180792 0.185692 0.331202
57 1 0.12752 0.555163 0.500823
23 1 0.28074 0.539588 0.463687
55 1 0.203258 0.161357 0.571737
42 1 0.197396 0.851214 0.937132
59 1 0.248226 0.0411159 0.62847
1 1 0.0812575 0.323068 0.623958
37 1 0.0748945 0.415492 0.625665
12 1 0.128326 0.505905 0.590429
7 1 0.216671 0.213204 0.746363
50 1 0.298725 0.891046 0.820173
29 1 0.0352965 0.927919 0.761816
33 1 0.0332171 0.0738148 0.811267
36 1 0.278884 0.044712 0.854584
10 1 0.157121 0.497073 0.823785
14 1 0.333179 0.504305 0.872624
47 1 0.126396 0.831492 0.84023
18 1 0.140837 0.715324 0.992589
41 1 0.303095 0.677227 0.922365
48 1 0.0133631 0.704363 0.667682
25 1 0.806292 0.141589 0.0148184
16 1 0.777669 0.249757 0.0511363
58 1 0.844453 0.455554 0.0684057
54 1 0.934456 0.793519 0.0774909
53 1 0.702906 0.865265 0.054594
15 1 0.925685 1.00349 0.0479317
8 1 0.882323 0.0603413 0.138472
34 1 0.894526 0.551657 0.0798621
20 1 0.919507 0.22967 0.213615
45 1 0.901264 0.512878 0.172168
22 1 0.822157 0.508299 0.170747
51 1 0.893244 0.0625981 0.347526
28 1 0.7824 0.483004 0.424257
5 1 0.923178 0.681262 0.376848
35 1 0.805608 0.831626 0.411321
40 1 0.991508 0.751721 0.481339
9 1 0.810029 0.128741 0.557913
39 1 0.888314 0.405838 0.649447
30 1 0.932777 0.989756 0.953983
2 1 0.976959 0.938249 0.595123
44 1 0.804862 0.130778 0.71592
21 1 0.752697 0.838777 0.750774
38 1 0.975788 0.612021 0.754064
24 1 0.954078 0.960859 0.792883
32 1 0.820625 0.676966 0.828752
27 1 0.792866 0.800394 0.908407
6 1 0.736038 0.846039 0.886385
56 1 0.90794 0.239287 0.971216
ITEM: TIMESTEP
900000
ITEM: NUMBER OF ATOMS
60
ITEM: BOX BOUNDS pp pp pp
-2.5000000000000000e+01 2.5000000000000000e+01
-2.0000000000000000e+01 2.0000000000000000e+01
-2.0000000000000000e+01 2.0000000000000000e+01
ITEM: ATOMS id type xs ys zs
57 1 0.199276 0.255805 0.0303814
5 1 0.0750125 0.641604 0.374582
19 1 0.1965 0.934849 0.0486093
43 1 0.354732 0.277978 0.0692796
60 1 0.0949317 0.454973 0.103665
31 1 0.291984 0.599516 0.13152
20 1 0.0300926 0.376257 0.243678
17 1 0.256734 0.332471 0.215985
49 1 0.0805703 0.454573 0.238702
11 1 0.220108 0.443493 0.224903
23 1 0.29765 0.436668 0.197154
4 1 0.149252 0.918217 0.166969
3 1 0.259572 0.298362 0.351793
26 1 0.307842 0.749816 0.314256
55 1 0.243116 0.113557 0.388078
59 1 0.150414 0.494795 0.386006
40 1 0.105675 0.819061 0.00699508
10 1 0.283504 0.490124 0.476175
36 1 0.230575 0.98428 0.907622
14 1 0.289617 0.0960035 0.627621
12 1 0.130545 0.214195 0.651219
7 1 0.215584 0.297235 0.656014
33 1 0.00634802 0.689761 0.593321
39 1 0.129916 0.784771 0.681384
42 1 0.212265 0.922025 0.703976
16 1 0.120584 0.234096 0.759197
1 1 0.015598 0.443935 0.760933
58 1 0.0229311 0.794976 0.775652
50 1 0.353514 0.95583 0.910021
41 1 0.33026 0.403788 0.944306
37 1 0.0223313 0.489324 0.898144
13 1 0.285499 0.516082 0.964622
8 1 0.743616 0.889688 0.0372621
45 1 0.984232 0.522422 0.15863
15 1 0.965087 0.666096 0.0608982
54 1 0.644705 0.743517 0.136987
30 1 0.698379 0.982574 0.10459
53 1 0.968403 0.0325059 0.2434
34 1 0.952561 0.650525 0.160742
44 1 0.908042 0.744756 0.192523
35 1 0.838656 0.84711 0.217332
32 1 0.753739 0.0666978 0.300942
46 1 0.625069 0.300279 0.286269
28 1 0.780799 0.421418 0.353388
2 1 0.914375 0.926619 0.374445
52 1 0.979491 0.940307 0.331312
51 1 0.923551 0.184131 0.48473
48 1 0.972164 0.60606 0.450491
24 1 0.969018 0.763221 -0.00123612
9 1 0.85791 0.0320981 0.577834
6 1 0.623461 0.0337981 0.609208
38 1 0.79883 0.295922 0.660591
25 1 0.889235 0.336631 0.574264
22 1 0.819637 0.393986 0.574446
18 1 0.81261 0.569897 0.748591
29 1 0.783925 0.462895 0.843352
27 1 0.690185 0.816317 0.81464
47 1 0.801472 0.563644 0.894192
56 1 0.730267 0.201928 0.937854
21 1 0.657197 0.246683 0.889667
ITEM: TIMESTEP
1000000
ITEM: NUMBER OF ATOMS
60
ITEM: BOX BOUNDS pp pp pp
-2.5000000000000000e+01 2.5000000000000000e+01
-2.0000000000000000e+01 2.0000000000000000e+01
-2.0000000000000000e+01 2.0000000000000000e+01
ITEM: ATOMS id type xs ys zs
23 1 0.335537 0.252963 0.00333481
2 1 0.21191 0.662036 0.0304549
26 1 0.322365 0.837157 0.0857381
29 1 0.0123156 0.316964 0.155078
39 1 0.0362953 0.848103 0.109634
55 1 0.0807921 0.224055 0.211903
49 1 0.223091 0.863286 0.18982
56 1 0.0685924 0.00536701 0.230551
36 1 0.0305628 0.759732 0.335667
3 1 0.318017 0.591941 0.356942
33 1 0.139999 1.00121 0.328878
16 1 0.295342 0.0862011 0.479168
5 1 0.182891 0.476091 0.420077
45 1 0.022746 0.751815 0.0527514
19 1 0.210064 0.743695 0.964623
10 1 0.102373 0.0120824 0.597474
11 1 0.156378 0.770679 0.92137
41 1 0.328392 0.628382 0.63819
57 1 0.134065 0.295297 0.767852
7 1 0.194448 0.447102 0.689578
14 1 0.0889715 0.505931 0.706721
43 1 0.19006 0.0668196 0.806305
42 1 0.18898 0.528312 0.791932
4 1 0.353657 0.800592 0.796042
40 1 0.234011 0.89371 0.746218
50 1 0.183616 0.234154 0.869948
12 1 0.188073 0.324126 0.904674
60 1 0.353463 0.35004 0.924772
22 1 0.243356 0.0112375 0.500056
59 1 0.183588 0.512196 0.997764
35 1 0.827466 0.723872 0.46548
27 1 0.748099 0.860136 0.0626519
20 1 0.706188 0.450519 0.0863353
47 1 0.802159 0.474963 0.153753
31 1 0.964417 0.578671 0.130868
24 1 0.807498 0.747638 0.0688124
18 1 0.886792 0.33616 0.150245
15 1 0.827785 0.720835 0.218307
58 1 0.973353 0.711027 0.173316
30 1 0.856577 0.984034 0.207173
46 1 0.709727 0.159354 0.322644
32 1 0.693728 0.482011 0.314478
52 1 0.76502 0.477858 0.343662
37 1 0.964851 0.25041 0.405861
28 1 0.892786 0.52398 0.342081
13 1 0.866811 0.66713 0.424197
25 1 1.00297 -0.00112789 0.475385
38 1 0.989592 0.298255 0.525269
48 1 0.860473 0.501043 0.548806
53 1 0.982356 0.877376 0.602669
8 1 0.765253 0.820104 0.718481
51 1 0.666772 0.0804701 0.826104
21 1 0.803964 0.776813 0.808528
34 1 0.888876 0.799485 0.835183
9 1 0.930832 0.137785 0.851172
54 1 0.709479 0.402776 0.867859
17 1 0.942263 0.580708 0.843136
1 1 0.851377 0.704509 0.834918
44 1 0.823388 0.822117 0.979376
6 1 0.711201 0.245653 0.525189
ITEM: TIMESTEP
1100000
ITEM: NUMBER OF ATOMS
60
ITEM: BOX BOUNDS pp pp pp
-2.5000000000000000e+01 2.5000000000000000e+01
-2.0000000000000000e+01 2.0000000000000000e+01
-2.0000000000000000e+01 2.0000000000000000e+01
ITEM: ATOMS id type xs ys zs
55 1 0.126641 0.0299214 0.083508
33 1 0.0928358 0.240518 0.0461492
39 1 0.026993 0.70741 0.171242
24 1 0.229423 0.680933 0.116642
26 1 0.173482 0.89885 0.169764
30 1 0.0798827 0.982343 0.231696
45 1 0.257389 0.131215 0.194044
22 1 0.218918 0.22507 0.260675
31 1 0.146797 0.806437 0.323917
56 1 0.118265 0.0109058 0.412095
5 1 0.0914655 0.260585 0.291232
3 1 0.105082 0.287573 0.446815
38 1 0.18531 0.557375 0.401668
29 1 0.0582622 0.852804 0.336721
43 1 0.262326 0.0843927 0.386976
50 1 0.0400031 0.214622 0.477671
4 1 0.142366 0.660485 0.414754
41 1 0.259771 0.800739 0.437429
36 1 0.259808 0.565124 0.535044
19 1 0.106828 0.004026 0.528303
49 1 0.258844 0.0236567 0.51834
40 1 0.343634 0.825049 0.622726
57 1 0.227522 0.454492 0.694564
59 1 0.29813 0.491778 0.660201
10 1 0.0298755 0.656546 0.719198
23 1 0.206938 0.199362 0.734917
60 1 0.282839 0.140544 0.784859
12 1 0.115046 0.363051 0.782393
52 1 0.0766143 0.439186 0.764111
2 1 0.333801 0.633315 0.971251
1 1 0.0165766 0.823735 0.842042
37 1 0.984331 0.552826 0.0712741
44 1 0.97676 0.825284 -0.0011599
51 1 0.701515 0.992447 -0.00649034
34 1 0.750926 0.790323 0.0826507
46 1 0.85491 0.00111108 0.152611
17 1 0.931639 0.613476 0.205121
20 1 0.929666 0.438165 0.343565
6 1 0.6782 0.5514 0.316307
11 1 0.858214 0.873805 0.26496
25 1 0.948835 0.0621203 0.289788
21 1 0.789944 0.726117 0.385183
16 1 0.927958 0.0749727 0.45939
15 1 0.77221 0.138808 0.486381
47 1 0.970161 0.534922 0.40385
32 1 0.842401 0.922717 0.428331
14 1 0.757413 0.642978 0.55062
58 1 0.825215 0.792612 0.603228
7 1 0.87871 0.22493 0.646902
53 1 0.828634 0.61118 0.572331
35 1 0.704028 0.860669 0.61932
9 1 0.631825 0.137174 0.70133
28 1 0.81386 0.291195 0.658859
48 1 0.617155 0.427947 0.762516
42 1 0.940843 0.983512 0.721418
8 1 0.920009 0.76042 0.834772
27 1 0.680834 0.245364 0.863293
13 1 0.793407 0.702654 0.894056
18 1 0.743166 0.80101 0.878735
54 1 0.718005 0.637295 0.994962
ITEM: TIMESTEP
1200000
ITEM: NUMBER OF ATOMS
60
ITEM: BOX BOUNDS pp pp pp
-2.5000000000000000e+01 2.5000000000000000e+01
-2.0000000000000000e+01 2.0000000000000000e+01
-2.0000000000000000e+01 2.0000000000000000e+01
ITEM: ATOMS id type xs ys zs
52 1 0.209094 0.0543998 0.0907563
41 1 0.297015 0.883832 0.0599438
26 1 0.194439 0.177778 0.119998
45 1 0.0121889 0.707458 0.26338
24 1 0.156456 0.747063 0.2107
3 1 0.310919 0.547095 0.293393
53 1 0.208894 0.594803 0.296894
30 1 0.0475529 0.792138 0.284172
31 1 0.342835 0.956626 0.365203
1 1 0.0488011 0.707409 0.505187
40 1 0.354387 0.726899 0.409884
37 1 0.264386 0.567094 0.00860164
49 1 0.330502 0.120351 0.569059
55 1 0.35707 0.252653 0.52614
20 1 0.123263 0.406916 0.554392
42 1 0.232365 0.727193 0.516977
12 1 0.242707 0.860854 0.560072
56 1 0.210819 0.0256667 0.668009
4 1 0.215004 0.189147 0.623901
59 1 0.383633 0.283295 0.618679
38 1 0.266267 0.621939 0.640154
27 1 0.0383104 0.457609 0.660862
23 1 0.0574993 0.385048 0.712897
36 1 0.307638 0.8385 0.704012
7 1 0.290126 0.53884 0.860393
57 1 0.171396 0.450904 0.969502
44 1 0.109854 0.993257 0.928784
33 1 0.15152 0.342367 0.919907
39 1 0.110008 0.570461 0.901202
60 1 0.0406967 0.763801 0.827056
8 1 0.0793079 0.875864 0.851017
2 1 0.357695 0.155836 0.988946
48 1 0.785914 0.108721 0.0633545
43 1 0.948031 0.145801 0.0789116
22 1 0.966694 0.931566 0.482133
34 1 0.95546 0.795034 0.0787516
50 1 0.926401 0.319285 0.14731
54 1 0.760406 0.488035 0.124179
21 1 0.822712 0.553187 0.0745693
29 1 0.934885 0.880486 0.159325
6 1 0.954247 0.761181 0.201404
14 1 0.768058 0.937546 0.163571
5 1 0.925906 0.311213 0.246107
46 1 0.82066 0.728274 0.246258
16 1 0.844883 0.737008 0.390065
17 1 0.734376 0.764203 0.00500272
35 1 0.824353 0.816439 0.565548
9 1 0.731586 -0.00347321 0.527738
58 1 0.930543 0.312539 0.595803
15 1 0.983853 0.377881 0.617319
13 1 0.760257 0.994609 0.723945
28 1 0.704321 0.238235 0.793585
32 1 0.933699 0.382175 0.785994
10 1 0.9706 0.573542 0.715226
47 1 0.835699 0.656267 0.82016
51 1 0.78907 0.472876 0.870556
18 1 0.585562 0.643369 0.892771
25 1 0.898632 0.260222 0.900724
11 1 0.909974 0.971279 0.97545
19 1 1.00124 0.031889 0.84915
ITEM: TIMESTEP
1300000
ITEM: NUMBER OF ATOMS
60
ITEM: BOX BOUNDS pp pp pp
-2.5000000000000000e+01 2.5000000000000000e+01
-2.0000000000000000e+01 2.0000000000000000e+01
-2.0000000000000000e+01 2.0000000000000000e+01
ITEM: ATOMS id type xs ys zs
7 1 0.22694 0.747225 0.10147
12 1 0.305789 0.858811 0.449186
44 1 0.205241 0.159653 0.126821
43 1 0.152303 0.509553 0.127396
45 1 0.172716 0.587074 0.204075
52 1 0.171609 0.803363 0.174281
16 1 0.0802244 0.909513 0.0460633
6 1 0.0234674 0.46083 0.254815
8 1 0.00621523 0.644436 0.218759
50 1 0.102108 0.694438 0.277434
42 1 0.13308 0.907927 0.229697
34 1 0.0574483 0.147493 0.262994
2 1 0.32178 0.135599 0.231955
24 1 0.238948 0.729972 0.282877
41 1 0.306648 0.820768 0.26239
30 1 0.199085 0.154499 0.373126
39 1 0.245743 0.318689 0.319494
57 1 0.132152 0.458088 0.38713
54 1 0.0501644 0.507217 0.33007
37 1 0.354902 0.644969 0.421635
22 1 0.103566 0.908983 0.389194
40 1 0.283071 0.958797 0.371211
53 1 0.119042 0.803789 0.459488
4 1 0.0726013 0.107135 0.493094
59 1 0.251174 0.0249509 0.557581
36 1 0.297283 0.97099 0.976157
56 1 0.354177 0.813943 0.550536
26 1 0.0582999 0.221367 0.586889
49 1 0.0859702 0.538323 0.572231
23 1 0.201729 0.44129 0.697362
33 1 0.169818 0.503328 0.801163
3 1 0.327634 0.635179 0.802324
55 1 0.196052 0.334941 0.994917
31 1 0.224694 0.882187 0.995567
1 1 0.853632 0.4337 0.475316
25 1 0.675103 0.256993 0.0356118
17 1 0.929358 0.837247 0.0560696
51 1 0.679593 0.480612 0.131658
11 1 0.92263 0.905819 0.198788
27 1 0.729916 0.58439 0.226669
10 1 0.937882 0.634416 0.246901
9 1 0.630362 0.999053 0.356255
29 1 0.97512 0.251993 0.337427
19 1 0.700755 0.791302 0.302306
32 1 0.864119 0.319271 0.465854
46 1 0.876759 0.981988 0.55066
15 1 0.823882 0.420243 0.568914
5 1 0.934951 0.491256 0.572247
35 1 0.749252 0.990669 0.961593
18 1 0.916063 0.765163 0.519248
58 1 0.556927 0.478154 0.633128
13 1 0.91478 0.108108 0.728958
47 1 0.845587 0.0228397 0.664637
38 1 0.984755 0.953748 0.640375