ITEM: TIMESTEP
0
ITEM: NUMBER OF ATOMS
66
ITEM: BOX BOUNDS pp pp pp
-2.3407027419979162e+01 2.3407027419979162e+01
-8.7776352824922288e+00 8.7776352824922288e+00
-8.7776352824922288e+00 8.7776352824922288e+00
ITEM: ATOMS id type xs ys zs
2 5 0.0215112 0.443037 0.5
8 5 0.0514168 0.443037 0.5
12 5 0.111228 0.443037 0.5
15 5 0.171039 0.443037 0.5
19 5 0.23085 0.443037 0.5
1 3 0.0215112 0.5 0.5
3 5 0.0215112 0.556963 0.5
6 3 0.0514168 0.5 0.5
7 5 0.0514168 0.556963 0.5
9 4 0.0813223 0.5 0.5
10 3 0.111228 0.5 0.5
11 5 0.111228 0.556963 0.5
13 3 0.171039 0.5 0.5
14 5 0.171039 0.556963 0.5
16 4 0.200945 0.5 0.5
17 3 0.23085 0.5 0.5
18 5 0.23085 0.556963 0.5
65 6 0.00839433 0.5 0.5
66 7 0.00839433 0.556963 0.5
22 5 0.290661 0.443037 0.5
26 5 0.350472 0.443037 0.5
29 5 0.410283 0.443037 0.5
33 5 0.470094 0.443037 0.5
20 3 0.290661 0.5 0.5
21 5 0.290661 0.556963 0.5
23 4 0.320567 0.5 0.5
24 3 0.350472 0.5 0.5
25 5 0.350472 0.556963 0.5
27 3 0.410283 0.5 0.5
28 5 0.410283 0.556963 0.5
30 4 0.440189 0.5 0.5
31 3 0.470094 0.5 0.5
32 5 0.470094 0.556963 0.5
36 5 0.529906 0.443037 0.5
40 5 0.589717 0.443037 0.5
43 5 0.649528 0.443037 0.5
47 5 0.709339 0.443037 0.5
34 3 0.529906 0.5 0.5
35 5 0.529906 0.556963 0.5
37 4 0.559811 0.5 0.5
38 3 0.589717 0.5 0.5
39 5 0.589717 0.556963 0.5
41 3 0.649528 0.5 0.5
42 5 0.649528 0.556963 0.5
44 4 0.679433 0.5 0.5
45 3 0.709339 0.5 0.5
46 5 0.709339 0.556963 0.5
5 7 0.991606 0.443037 0.5
50 5 0.76915 0.443037 0.5
54 5 0.828961 0.443037 0.5
57 5 0.888772 0.443037 0.5
61 5 0.948583 0.443037 0.5
64 5 0.978489 0.443037 0.5
4 6 0.991606 0.5 0.5
48 3 0.76915 0.5 0.5
49 5 0.76915 0.556963 0.5
51 4 0.799055 0.5 0.5
52 3 0.828961 0.5 0.5
53 5 0.828961 0.556963 0.5
55 3 0.888772 0.5 0.5
56 5 0.888772 0.556963 0.5
58 4 0.918678 0.5 0.5
59 3 0.948583 0.5 0.5
60 5 0.948583 0.556963 0.5
62 3 0.978489 0.5 0.5
63 5 0.978489 0.556963 0.5
ITEM: TIMESTEP
10
ITEM: NUMBER OF ATOMS
66
ITEM: BOX BOUNDS pp pp pp
-2.3407027419979162e+01 2.3407027419979162e+01
-8.7776352824922288e+00 8.7776352824922288e+00
-8.7776352824922288e+00 8.7776352824922288e+00
ITEM: ATOMS id type xs ys zs
2 5 0.0216088 0.442509 0.5
8 5 0.0514173 0.443037 0.5
12 5 0.111228 0.443037 0.5
15 5 0.171039 0.443037 0.5
19 5 0.23085 0.443037 0.5
1 3 0.0370894 0.500506 0.500031
3 5 0.0216121 0.557501 0.5
6 3 0.0514208 0.499626 0.499953
7 5 0.0514173 0.556963 0.5
9 4 0.0813223 0.500112 0.500021
10 3 0.111229 0.500001 0.500007
11 5 0.111228 0.556963 0.5
13 3 0.171038 0.499993 0.499987
14 5 0.171039 0.556963 0.5
16 4 0.200945 0.500011 0.500008
17 3 0.230851 0.499995 0.500069
18 5 0.23085 0.556963 0.5
65 6 0.0130302 0.500052 0.499987
66 7 0.00839323 0.556963 0.5
22 5 0.290661 0.443037 0.5
26 5 0.350472 0.443037 0.5
29 5 0.410283 0.443037 0.5
33 5 0.470094 0.443037 0.5
20 3 0.290661 0.50101 0.497242
21 5 0.290661 0.556963 0.5
23 4 0.320567 0.501024 0.503611
24 3 0.350473 0.496951 0.49989
25 5 0.350472 0.556963 0.5
27 3 0.410283 0.500002 0.499188
28 5 0.410283 0.556963 0.5
30 4 0.440189 0.501013 0.499998
31 3 0.470095 0.5 0.5
32 5 0.470094 0.556963 0.5
36 5 0.529906 0.443037 0.5
40 5 0.589717 0.443037 0.5
43 5 0.649528 0.443037 0.5
47 5 0.709339 0.443037 0.5
34 3 0.529905 0.499976 0.5
35 5 0.529906 0.556963 0.5
37 4 0.559811 0.49955 0.499985
38 3 0.589717 0.500724 0.500005
39 5 0.589717 0.556963 0.5
41 3 0.649527 0.49975 0.500043
42 5 0.649528 0.556963 0.5
44 4 0.679433 0.500007 0.500052
45 3 0.709339 0.49999 0.499875
46 5 0.709339 0.556963 0.5
5 7 0.991607 0.443037 0.5
50 5 0.76915 0.443037 0.5
54 5 0.828961 0.443037 0.5
57 5 0.888772 0.443037 0.5
61 5 0.948583 0.443037 0.5
64 5 0.978386 0.442489 0.5
4 6 0.98697 0.499812 0.500013
48 3 0.769149 0.499997 0.500042
49 5 0.76915 0.556963 0.5
51 4 0.799055 0.500027 0.499997
52 3 0.828962 0.499966 0.500003
53 5 0.828961 0.556963 0.5
55 3 0.888771 0.500021 0.5
56 5 0.888772 0.556963 0.5
58 4 0.918678 0.499987 0.5
59 3 0.948579 0.500105 0.500003
60 5 0.948583 0.556963 0.5
62 3 0.96291 0.49981 0.499989
63 5 0.978393 0.557481 0.5
ITEM: TIMESTEP
20
ITEM: NUMBER OF ATOMS
66
ITEM: BOX BOUNDS pp pp pp
-2.3407027419979162e+01 2.3407027419979162e+01
-8.7776352824922288e+00 8.7776352824922288e+00
-8.7776352824922288e+00 8.7776352824922288e+00
ITEM: ATOMS id type xs ys zs
2 5 0.0245521 0.417261 0.50004
8 5 0.0517056 0.442956 0.500009
12 5 0.111204 0.442929 0.499975
15 5 0.171055 0.442935 0.500073
19 5 0.230835 0.442933 0.499925
1 3 0.0545863 0.501796 0.500924
3 5 0.0245807 0.582727 0.500021
6 3 0.0557134 0.498514 0.499172
7 5 0.051733 0.557022 0.500002
9 4 0.0813464 0.500689 0.500221
10 3 0.111508 0.49958 0.499841
11 5 0.111204 0.557065 0.499975
13 3 0.170778 0.50039 0.499611
14 5 0.171055 0.557071 0.500073
16 4 0.200944 0.499539 0.500239
17 3 0.231111 0.500169 0.500306
18 5 0.230835 0.557069 0.499924
65 6 0.0177249 0.500002 0.499616
66 7 0.00839203 0.556823 0.499999
22 5 0.290652 0.442952 0.500099
26 5 0.350461 0.442885 0.500092
29 5 0.41028 0.442932 0.500103
33 5 0.470068 0.44293 0.500022
20 3 0.290457 0.500908 0.49674
21 5 0.290652 0.557077 0.500104
23 4 0.320565 0.501219 0.50404
24 3 0.350716 0.496858 0.499522
25 5 0.350464 0.557021 0.500082
27 3 0.410061 0.499971 0.498872
28 5 0.410278 0.557065 0.500103
30 4 0.44019 0.501389 0.500195
31 3 0.470375 0.499638 0.499838
32 5 0.470068 0.557066 0.500022
36 5 0.529932 0.442933 0.499989
40 5 0.589691 0.442945 0.49998
43 5 0.649551 0.442927 0.499963
47 5 0.709325 0.442929 0.500079
34 3 0.529623 0.500347 0.500062
35 5 0.529933 0.557069 0.499989
37 4 0.559812 0.498984 0.499959
38 3 0.589998 0.501063 0.500088
39 5 0.589689 0.557081 0.499979
41 3 0.649251 0.499404 0.49996
42 5 0.649551 0.557063 0.499963
44 4 0.679433 0.500696 0.500199
45 3 0.709595 0.499567 0.499725
46 5 0.709325 0.557065 0.500079
5 7 0.991608 0.443173 0.500001
50 5 0.769174 0.44293 0.49996
54 5 0.828947 0.442931 0.499921
57 5 0.888788 0.442934 0.499928
61 5 0.948268 0.442978 0.500004
64 5 0.97539 0.417119 0.499977
4 6 0.982271 0.499826 0.500373
48 3 0.768872 0.499686 0.500245
49 5 0.769174 0.557066 0.49996
51 4 0.799055 0.500489 0.499493
52 3 0.829219 0.499794 0.500523
53 5 0.828947 0.557067 0.499921
55 3 0.888507 0.500308 0.500385
56 5 0.888788 0.55707 0.499928
58 4 0.918654 0.499489 0.49965
59 3 0.944383 0.501554 0.501251
60 5 0.948294 0.557043 0.499994
62 3 0.945322 0.498504 0.49873
63 5 0.975476 0.582583 0.499963
ITEM: TIMESTEP
30
ITEM: NUMBER OF ATOMS
66
ITEM: BOX BOUNDS pp pp pp
-2.3407027419979162e+01 2.3407027419979162e+01
-8.7776352824922288e+00 8.7776352824922288e+00
-8.7776352824922288e+00 8.7776352824922288e+00
ITEM: ATOMS id type xs ys zs
2 5 0.029043 0.403132 0.502166
8 5 0.0555081 0.442585 0.499735
12 5 0.110767 0.44075 0.500668
15 5 0.171437 0.441749 0.500896
19 5 0.230419 0.441738 0.499459
1 3 0.0552951 0.502296 0.522906
3 5 0.0293762 0.598878 0.501981
6 3 0.0676688 0.495822 0.48025
7 5 0.0556975 0.556581 0.498982
9 4 0.0845419 0.505913 0.508422
10 3 0.116175 0.49715 0.494516
11 5 0.11083 0.558353 0.500584
13 3 0.166603 0.504203 0.495488
14 5 0.171522 0.559321 0.501006
16 4 0.200933 0.491052 0.503903
17 3 0.235506 0.504458 0.500639
18 5 0.23031 0.559326 0.499419
65 6 0.0166345 0.502241 0.475417
66 7 0.00923725 0.554149 0.499868
22 5 0.290733 0.441392 0.501807
26 5 0.34999 0.44023 0.50116
29 5 0.410602 0.441041 0.501511
33 5 0.469568 0.440675 0.500684
20 3 0.286922 0.498979 0.489426
21 5 0.290736 0.558729 0.501814
23 4 0.320585 0.503973 0.510856
24 3 0.354823 0.496794 0.494381
25 5 0.350134 0.557797 0.500955
27 3 0.40608 0.498138 0.492419
28 5 0.41052 0.55856 0.501447
30 4 0.440235 0.507051 0.506996
31 3 0.474614 0.496258 0.494879
32 5 0.46965 0.558239 0.50059
36 5 0.530375 0.441852 0.499849
40 5 0.589257 0.442016 0.499798
43 5 0.650094 0.44053 0.500276
47 5 0.708806 0.440635 0.5008
34 3 0.525311 0.504871 0.501014
35 5 0.530487 0.559448 0.499823
37 4 0.559822 0.48986 0.499472
38 3 0.594302 0.505227 0.501089
39 5 0.589127 0.559612 0.499761
41 3 0.644947 0.495258 0.497252
42 5 0.649992 0.558119 0.500218
44 4 0.679419 0.509341 0.503738
45 3 0.713851 0.496048 0.495929
46 5 0.708928 0.558219 0.50071
5 7 0.990776 0.445759 0.500129
50 5 0.769641 0.440889 0.499096
54 5 0.828542 0.440873 0.498804
57 5 0.889124 0.441568 0.499044
61 5 0.944299 0.443344 0.500949
64 5 0.970569 0.40101 0.497945
4 6 0.983362 0.497454 0.524475
48 3 0.764689 0.497928 0.506471
49 5 0.769558 0.558429 0.499166
51 4 0.799045 0.505701 0.491811
52 3 0.833303 0.497153 0.506474
53 5 0.828596 0.558416 0.4989
55 3 0.8839 0.502478 0.506072
56 5 0.889176 0.55916 0.498957
58 4 0.915484 0.495253 0.491142
59 3 0.932346 0.503294 0.52026
60 5 0.944489 0.557334 0.500358
62 3 0.944684 0.498598 0.477129
63 5 0.971003 0.596772 0.497857
ITEM: TIMESTEP
40
ITEM: NUMBER OF ATOMS
66
ITEM: BOX BOUNDS pp pp pp
-2.3407027419979162e+01 2.3407027419979162e+01
-8.7776352824922288e+00 8.7776352824922288e+00
-8.7776352824922288e+00 8.7776352824922288e+00
ITEM: ATOMS id type xs ys zs
2 5 0.0294257 0.416818 0.508263
8 5 0.0595743 0.44403 0.497931
12 5 0.11073 0.439354 0.501542
15 5 0.171561 0.442437 0.501566
19 5 0.230329 0.442536 0.499228
1 3 0.0350954 0.500212 0.537062
3 5 0.0303045 0.585922 0.5086
6 3 0.0668895 0.496827 0.476516
7 5 0.0596362 0.55308 0.49604
9 4 0.0889972 0.507426 0.512787
10 3 0.119031 0.497281 0.491142
11 5 0.110927 0.55805 0.501118
13 3 0.165621 0.504772 0.493372
14 5 0.171997 0.561721 0.502162
16 4 0.201038 0.485451 0.505366
17 3 0.237053 0.504936 0.500102
18 5 0.229789 0.561795 0.499094
65 6 0.000636802 0.510284 0.439177
66 7 0.00924277 0.546928 0.492875
22 5 0.290777 0.440388 0.503465
26 5 0.349741 0.438916 0.502298
29 5 0.410822 0.439716 0.502953
33 5 0.469263 0.438856 0.501896
20 3 0.285754 0.498741 0.486075
21 5 0.290757 0.558841 0.50314
23 4 0.320675 0.50469 0.513443
24 3 0.356042 0.497892 0.490082
25 5 0.35005 0.557924 0.501849
27 3 0.404959 0.497991 0.488508
28 5 0.410513 0.558521 0.50254
30 4 0.440275 0.509138 0.510751
31 3 0.475789 0.496784 0.490468
32 5 0.469542 0.557846 0.50135
36 5 0.530509 0.442658 0.499606
40 5 0.589111 0.442876 0.499567
43 5 0.650553 0.438162 0.501088
47 5 0.708377 0.438637 0.501943
34 3 0.523924 0.505017 0.502798
35 5 0.531022 0.561985 0.499393
37 4 0.559817 0.484512 0.498232
38 3 0.595663 0.505361 0.502701
39 5 0.588592 0.562216 0.499338
41 3 0.643663 0.495403 0.493965
42 5 0.65013 0.557402 0.500666
44 4 0.679418 0.513272 0.506959
45 3 0.715168 0.49639 0.492023
46 5 0.708873 0.557719 0.501448
5 7 0.990775 0.452924 0.507082
50 5 0.769902 0.439697 0.497842
54 5 0.828255 0.439157 0.497427
57 5 0.889005 0.441832 0.498447
61 5 0.940335 0.446693 0.50382
64 5 0.96968 0.414137 0.491271
4 6 0.999362 0.489583 0.560789
48 3 0.763535 0.498468 0.511002
49 5 0.769597 0.558511 0.498148
51 4 0.798979 0.507644 0.48823
52 3 0.834139 0.497051 0.51037
53 5 0.828496 0.558178 0.49797
55 3 0.881018 0.502562 0.509212
56 5 0.8892 0.560482 0.498026
58 4 0.911042 0.493736 0.486932
59 3 0.933137 0.502567 0.523827
60 5 0.940436 0.555705 0.502337
62 3 0.964884 0.500097 0.462961
63 5 0.970563 0.583263 0.491818
ITEM: TIMESTEP
50
ITEM: NUMBER OF ATOMS
66
ITEM: BOX BOUNDS pp pp pp
-2.3407027419979162e+01 2.3407027419979162e+01
-8.7776352824922288e+00 8.7776352824922288e+00
-8.7776352824922288e+00 8.7776352824922288e+00
ITEM: ATOMS id type xs ys zs
2 5 0.0306721 0.453782 0.501156
8 5 0.0670678 0.431636 0.506502
12 5 0.119197 0.440625 0.50337
15 5 0.171663 0.449207 0.514655
19 5 0.231354 0.446338 0.496916
1 3 0.0368414 0.503074 0.536513
3 5 0.0271696 0.560291 0.51623
6 3 0.0738443 0.493589 0.493608
7 5 0.066576 0.555882 0.497403
9 4 0.101499 0.50613 0.515841
10 3 0.128767 0.494841 0.480088
11 5 0.119089 0.551224 0.499802
13 3 0.173595 0.506323 0.484895
14 5 0.172089 0.561347 0.51694
16 4 0.206189 0.479483 0.495913
17 3 0.23957 0.506457 0.494521
18 5 0.229851 0.563998 0.496185
66 7 -0.000737406 0.53388 0.470781
4 6 0.0188058 0.471201 0.564936
22 5 0.287982 0.443429 0.513898
26 5 0.353573 0.44505 0.509392
29 5 0.407279 0.442875 0.512124
33 5 0.471958 0.442739 0.512906
20 3 0.287054 0.49796 0.479854
21 5 0.28872 0.553805 0.512048
23 4 0.321458 0.500884 0.504925
24 3 0.35573 0.500287 0.476732
25 5 0.354018 0.55458 0.510198
27 3 0.40589 0.496613 0.477956
28 5 0.40666 0.552352 0.510327
30 4 0.440507 0.506338 0.505044
31 3 0.475875 0.498646 0.48387
32 5 0.471783 0.555113 0.511941
36 5 0.529188 0.445071 0.489376
40 5 0.59037 0.445162 0.489368
43 5 0.648226 0.441859 0.512261
47 5 0.710117 0.442155 0.513515
34 3 0.524652 0.502695 0.51345
35 5 0.529815 0.559667 0.48838
37 4 0.559872 0.490991 0.491844
38 3 0.595092 0.502613 0.51356
39 5 0.589945 0.559629 0.488467
41 3 0.643823 0.498292 0.484739
42 5 0.648293 0.554976 0.5114
44 4 0.678826 0.506049 0.508271
45 3 0.713553 0.498514 0.484678
46 5 0.710919 0.555378 0.512967
5 7 1.00075 0.465949 0.529425
50 5 0.767386 0.443241 0.487612
54 5 0.829298 0.4413 0.48598
57 5 0.880666 0.448949 0.499939
61 5 0.933404 0.443929 0.502331
64 5 0.972801 0.439727 0.483677
63 5 0.969246 0.546266 0.498544
48 3 0.761034 0.498626 0.514554
49 5 0.766485 0.555238 0.487971
51 4 0.794575 0.508427 0.492668
52 3 0.826795 0.4955 0.519799
53 5 0.828843 0.551957 0.488323
55 3 0.871519 0.505856 0.519582
56 5 0.880954 0.560083 0.496358
58 4 0.898606 0.491868 0.484861
59 3 0.926154 0.50618 0.506299
60 5 0.932869 0.56824 0.493875
62 3 0.963121 0.496828 0.463263
65 6 0.981214 0.52881 0.435196
ITEM: TIMESTEP
60
ITEM: NUMBER OF ATOMS
66
ITEM: BOX BOUNDS pp pp pp
-2.3407027419979162e+01 2.3407027419979162e+01
-8.7776352824922288e+00 8.7776352824922288e+00
-8.7776352824922288e+00 8.7776352824922288e+00
ITEM: ATOMS id type xs ys zs
2 5 0.0361695 0.468539 0.468803
8 5 0.0765982 0.431264 0.492216
12 5 0.131735 0.439469 0.508598
15 5 0.177665 0.451764 0.531169
19 5 0.237938 0.449605 0.508763
1 3 0.0470542 0.500915 0.522089
3 5 0.0367577 0.558171 0.512698
6 3 0.084296 0.49182 0.50235
7 5 0.0772508 0.548983 0.475185
9 4 0.112591 0.502432 0.524811
10 3 0.138448 0.495441 0.483222
11 5 0.129948 0.553397 0.500274
13 3 0.181706 0.506206 0.494007
14 5 0.177328 0.560048 0.528337
16 4 0.211904 0.479737 0.476387
17 3 0.243132 0.506268 0.483442
18 5 0.236452 0.562376 0.505276
66 7 -0.0139219 0.536682 0.442945
4 6 0.0344341 0.470727 0.569809
22 5 0.287191 0.446138 0.513997
26 5 0.358029 0.44837 0.511403
29 5 0.403674 0.440823 0.51978
33 5 0.475745 0.443602 0.524223
20 3 0.290612 0.498739 0.475886
21 5 0.289232 0.551961 0.512977
23 4 0.324107 0.494831 0.503759
24 3 0.357615 0.503431 0.477126
25 5 0.359395 0.55562 0.515336
27 3 0.40716 0.493196 0.482272
28 5 0.404277 0.548607 0.514939
30 4 0.441132 0.513652 0.503108
31 3 0.475665 0.496826 0.487115
32 5 0.476014 0.551355 0.521203
36 5 0.525116 0.447333 0.475143
40 5 0.594241 0.447343 0.475972
43 5 0.64311 0.44493 0.524423
47 5 0.710608 0.444535 0.524173
34 3 0.524943 0.501362 0.509348
35 5 0.524898 0.556958 0.473298
37 4 0.559365 0.49584 0.483495
38 3 0.593594 0.500987 0.510684
39 5 0.594187 0.556673 0.474688
41 3 0.64246 0.49991 0.489816
42 5 0.643262 0.553634 0.523868
44 4 0.675897 0.503442 0.516247
45 3 0.709333 0.50017 0.489631
46 5 0.711543 0.554352 0.524217
5 7 1.0141 0.463232 0.557098
50 5 0.760491 0.443486 0.476278
54 5 0.82392 0.439263 0.476328
57 5 0.870312 0.447367 0.498737
61 5 0.922818 0.451507 0.525493
64 5 0.963424 0.441392 0.48719
63 5 0.963883 0.531301 0.530865
48 3 0.756494 0.496527 0.510749
49 5 0.759021 0.551737 0.478499
51 4 0.787841 0.516713 0.491986
52 3 0.818461 0.493383 0.511171
53 5 0.822331 0.549638 0.479043
55 3 0.862079 0.506041 0.513115
56 5 0.868852 0.561986 0.489519
58 4 0.887875 0.493936 0.473974
59 3 0.915935 0.508102 0.495782
60 5 0.923215 0.568506 0.508248
62 3 0.95324 0.498824 0.477634
65 6 0.965818 0.528594 0.429781
ITEM: TIMESTEP
70
ITEM: NUMBER OF ATOMS
66
ITEM: BOX BOUNDS pp pp pp
-2.3407027419979162e+01 2.3407027419979162e+01
-8.7776352824922288e+00 8.7776352824922288e+00
-8.7776352824922288e+00 8.7776352824922288e+00
ITEM: ATOMS id type xs ys zs
2 5 0.0485358 0.475755 0.469503
8 5 0.0929019 0.432316 0.465508
12 5 0.143506 0.442343 0.516264
15 5 0.187991 0.453647 0.542854
19 5 0.248198 0.45411 0.533845
1 3 0.0609517 0.50023 0.518232
3 5 0.0525939 0.561271 0.519692
6 3 0.0970585 0.491431 0.490589
7 5 0.0935351 0.535984 0.444219
9 4 0.123591 0.500222 0.519224
10 3 0.148914 0.494718 0.481052
11 5 0.142461 0.552446 0.504698
13 3 0.190735 0.499161 0.501653
14 5 0.187765 0.557891 0.530698
16 4 0.219649 0.491973 0.465584
17 3 0.250302 0.501495 0.49334
18 5 0.247505 0.559682 0.522843
4 6 0.0514435 0.468383 0.570054
5 7 0.0307198 0.466768 0.566542
22 5 0.292759 0.446686 0.508847
26 5 0.359977 0.449703 0.512141
29 5 0.405398 0.440412 0.525956
33 5 0.476433 0.441351 0.530525
20 3 0.295636 0.502183 0.475199
21 5 0.294318 0.55559 0.511864
23 4 0.327969 0.491567 0.501536
24 3 0.360912 0.504006 0.47835
25 5 0.361682 0.555366 0.516097
27 3 0.408631 0.491668 0.489405
28 5 0.406206 0.545336 0.52269
30 4 0.442186 0.519337 0.491605
31 3 0.47605 0.492434 0.491082
32 5 0.476503 0.547161 0.525148
36 5 0.524203 0.448765 0.468894
40 5 0.593131 0.44831 0.471871
43 5 0.639233 0.446732 0.5276
47 5 0.705015 0.447284 0.527094
34 3 0.524224 0.50355 0.503357
35 5 0.522471 0.555708 0.466778
37 4 0.557995 0.49604 0.479254
38 3 0.591354 0.502863 0.506831
39 5 0.593172 0.555913 0.470597
41 3 0.638958 0.500625 0.491487
42 5 0.639593 0.553765 0.528137
44 4 0.671508 0.500907 0.520096
45 3 0.703891 0.501957 0.492663
46 5 0.707019 0.554829 0.528614
65 6 0.949021 0.530613 0.429024
50 5 0.75315 0.441293 0.466915
54 5 0.813374 0.438955 0.464762
57 5 0.858316 0.448519 0.492858
61 5 0.90641 0.464548 0.553978
64 5 0.9476 0.438365 0.480298
63 5 0.951539 0.524261 0.529797
48 3 0.749312 0.492868 0.504043
49 5 0.751765 0.547287 0.470557
51 4 0.779473 0.523646 0.505233
52 3 0.809681 0.493628 0.497754
53 5 0.81228 0.544629 0.462677
55 3 0.851201 0.506577 0.513833
56 5 0.856047 0.558015 0.477565
58 4 0.876758 0.498385 0.477655
59 3 0.903207 0.508558 0.507015
60 5 0.906974 0.567955 0.531811
62 3 0.939402 0.49935 0.480899
66 7 0.969708 0.532669 0.433213
ITEM: TIMESTEP
80
ITEM: NUMBER OF ATOMS
66
ITEM: BOX BOUNDS pp pp pp
-2.3407027419979162e+01 2.3407027419979162e+01
-8.7776352824922288e+00 8.7776352824922288e+00
-8.7776352824922288e+00 8.7776352824922288e+00
ITEM: ATOMS id type xs ys zs
2 5 0.0637024 0.481428 0.46488
8 5 0.109002 0.430978 0.458389
12 5 0.157512 0.442719 0.516318
15 5 0.200909 0.453925 0.54919
5 7 0.0497061 0.468644 0.568707
1 3 0.0784031 0.501233 0.512945
3 5 0.0713722 0.562421 0.521052
6 3 0.112346 0.490925 0.482175
7 5 0.109477 0.532116 0.432461
9 4 0.1379 0.5002 0.513825
10 3 0.163707 0.494032 0.480346
11 5 0.156901 0.552227 0.50296
13 3 0.203098 0.499327 0.503882
14 5 0.200195 0.556671 0.533193
16 4 0.231063 0.495903 0.46959
4 6 0.0704169 0.466554 0.56476
22 5 0.302606 0.447254 0.511181
26 5 0.363866 0.448817 0.511974
29 5 0.409449 0.440609 0.529474
33 5 0.476623 0.440753 0.53474
20 3 0.303647 0.503483 0.478604
21 5 0.303 0.556204 0.516291
23 4 0.334806 0.492384 0.504828
24 3 0.366357 0.503489 0.477654
25 5 0.365132 0.556079 0.514858
27 3 0.411946 0.494318 0.496299
28 5 0.409833 0.544757 0.536796
30 4 0.444328 0.510885 0.474424
31 3 0.476272 0.49248 0.498301
32 5 0.475448 0.544996 0.535415
19 5 0.258516 0.454382 0.543425
17 3 0.260118 0.50049 0.499527
18 5 0.256981 0.55757 0.527886
36 5 0.523202 0.451519 0.465725
40 5 0.58952 0.449684 0.470796
43 5 0.634265 0.44899 0.5259
47 5 0.697465 0.452182 0.528135
34 3 0.523074 0.506632 0.49969
35 5 0.52115 0.558078 0.461382
37 4 0.555652 0.487636 0.480462
38 3 0.587765 0.504389 0.505131
39 5 0.58857 0.557359 0.468099
41 3 0.633929 0.504023 0.491506
42 5 0.635658 0.556158 0.529007
44 4 0.665062 0.487603 0.516292
45 3 0.696107 0.507587 0.494621
46 5 0.699883 0.559139 0.532899
48 3 0.740203 0.493499 0.492109
49 5 0.744555 0.544397 0.454144
65 6 0.930185 0.532719 0.433448
50 5 0.743169 0.440636 0.458917
54 5 0.799692 0.442814 0.462382
57 5 0.843312 0.447738 0.494251
61 5 0.890232 0.469029 0.564669
64 5 0.928817 0.437538 0.478221
63 5 0.936249 0.518987 0.533629
66 7 0.950927 0.530514 0.430471
62 3 0.921838 0.498755 0.48518
51 4 0.768692 0.508671 0.519634
52 3 0.796948 0.49871 0.489913
53 5 0.799617 0.543412 0.442752
55 3 0.835935 0.50665 0.514102
56 5 0.842481 0.556417 0.476135
58 4 0.8624 0.500612 0.48187
59 3 0.88779 0.509771 0.514361
60 5 0.891021 0.569903 0.537816
ITEM: TIMESTEP
90
ITEM: NUMBER OF ATOMS
66
ITEM: BOX BOUNDS pp pp pp
-2.3407027419979162e+01 2.3407027419979162e+01
-8.7776352824922288e+00 8.7776352824922288e+00
-8.7776352824922288e+00 8.7776352824922288e+00
ITEM: ATOMS id type xs ys zs
2 5 0.0768432 0.484933 0.46208
8 5 0.122378 0.430129 0.45627
12 5 0.169199 0.44227 0.515422
15 5 0.211745 0.454674 0.550435
5 7 0.0636022 0.468931 0.566876
1 3 0.0919847 0.50215 0.510215
3 5 0.0858664 0.563503 0.521332
6 3 0.125402 0.490762 0.47917
7 5 0.122989 0.53032 0.427581
9 4 0.149888 0.500085 0.511744
10 3 0.175413 0.493669 0.478785
11 5 0.168582 0.552423 0.500299
13 3 0.214205 0.49956 0.505482
14 5 0.211154 0.556532 0.534185
16 4 0.240767 0.495229 0.471447
4 6 0.0845519 0.46604 0.561299
22 5 0.310615 0.44619 0.512568
26 5 0.368331 0.4475 0.512787
29 5 0.413339 0.440891 0.530584
33 5 0.47796 0.440595 0.53663
20 3 0.310844 0.502429 0.480385
21 5 0.311176 0.555386 0.517424
23 4 0.341186 0.494908 0.508288
24 3 0.371123 0.502024 0.479945
25 5 0.368827 0.555585 0.514482
27 3 0.415483 0.496827 0.500848
28 5 0.413556 0.543778 0.544615
30 4 0.446023 0.503868 0.474266
31 3 0.477041 0.495438 0.503522
32 5 0.475415 0.543923 0.545035
19 5 0.266932 0.455047 0.545995
17 3 0.268429 0.500947 0.501676
18 5 0.265551 0.558058 0.530467
36 5 0.521456 0.45482 0.458449
40 5 0.586361 0.451584 0.467858
43 5 0.629683 0.453003 0.527321
47 5 0.691445 0.456671 0.536817
34 3 0.522105 0.508209 0.494203
35 5 0.520619 0.559767 0.456192
37 4 0.55327 0.479983 0.488585
38 3 0.584276 0.505788 0.50298
39 5 0.583655 0.558112 0.464842
41 3 0.629504 0.507363 0.492615
42 5 0.632289 0.558336 0.531215
44 4 0.659191 0.47794 0.499233
45 3 0.689233 0.509664 0.499993
46 5 0.692274 0.56112 0.537062
48 3 0.731836 0.496555 0.485232
49 5 0.735745 0.543233 0.44284
50 5 0.733312 0.440398 0.455125
65 6 0.916041 0.533271 0.436498
60 5 0.877411 0.570491 0.53893
54 5 0.789318 0.442213 0.461519
57 5 0.831656 0.447369 0.496533
61 5 0.876583 0.47124 0.568619
64 5 0.914211 0.43677 0.477386
63 5 0.922898 0.515605 0.535867
66 7 0.93682 0.530374 0.431668
62 3 0.908186 0.498046 0.487316
51 4 0.7594 0.504971 0.515291
52 3 0.785739 0.497723 0.486168
53 5 0.788917 0.541339 0.439807
55 3 0.82404 0.506826 0.513778
56 5 0.830834 0.556488 0.477082
58 4 0.850367 0.500111 0.483628
59 3 0.874921 0.51001 0.517208
ITEM: TIMESTEP
100
ITEM: NUMBER OF ATOMS
66
ITEM: BOX BOUNDS pp pp pp
-2.3407027419979162e+01 2.3407027419979162e+01
-8.7776352824922288e+00 8.7776352824922288e+00
-8.7776352824922288e+00 8.7776352824922288e+00
ITEM: ATOMS id type xs ys zs
2 5 0.0919426 0.488491 0.45888
8 5 0.1377 0.428787 0.454229
12 5 0.183028 0.442233 0.514865
15 5 0.224782 0.454013 0.553369
5 7 0.0796847 0.468794 0.564156
1 3 0.107641 0.502929 0.507332
3 5 0.102404 0.565121 0.521574
6 3 0.140905 0.490539 0.476183
7 5 0.13856 0.528818 0.42279
9 4 0.164296 0.50016 0.510504
10 3 0.188818 0.493215 0.477176
11 5 0.182447 0.552768 0.497711
13 3 0.225994 0.499611 0.505083
14 5 0.224169 0.558312 0.53596
4 6 0.100209 0.465447 0.55818
22 5 0.320195 0.444471 0.513553
26 5 0.373466 0.446228 0.514186
29 5 0.418187 0.437537 0.535135
33 5 0.479118 0.437522 0.538021
20 3 0.319877 0.50066 0.482632
21 5 0.320898 0.554207 0.518262
23 4 0.348072 0.497388 0.511341
24 3 0.376847 0.50035 0.482173
25 5 0.374062 0.554893 0.515275
27 3 0.419606 0.497218 0.504107
28 5 0.418071 0.544329 0.552113
30 4 0.449275 0.502196 0.471946
31 3 0.477948 0.496604 0.506334
32 5 0.47715 0.544157 0.552873
19 5 0.276931 0.455149 0.5495
17 3 0.279237 0.501355 0.503708
18 5 0.275923 0.558952 0.532914
16 4 0.252752 0.494855 0.471387
36 5 0.520232 0.456053 0.443289
40 5 0.582565 0.452649 0.451834
43 5 0.624479 0.450959 0.547634
47 5 0.683102 0.457379 0.552634
34 3 0.521044 0.504056 0.486834
35 5 0.520707 0.560798 0.455243
37 4 0.551036 0.486473 0.514222
38 3 0.580789 0.507613 0.487187
39 5 0.579559 0.562716 0.45147
41 3 0.623359 0.503247 0.507976
42 5 0.626931 0.559539 0.539612
44 4 0.651709 0.496553 0.472987
45 3 0.680143 0.502055 0.505883
46 5 0.682077 0.560011 0.533594
48 3 0.720235 0.497205 0.479672
49 5 0.723573 0.544272 0.43384
50 5 0.722747 0.437412 0.451563
51 4 0.746559 0.503928 0.519908
65 6 0.900106 0.533942 0.438856
60 5 0.861906 0.571634 0.539744
54 5 0.776541 0.435772 0.455464
57 5 0.817768 0.446119 0.497513
61 5 0.860936 0.472714 0.572699
64 5 0.897776 0.435141 0.476337
63 5 0.907773 0.512264 0.538484
66 7 0.920984 0.530653 0.43351
62 3 0.892231 0.497045 0.489981
59 3 0.858957 0.510092 0.519126
52 3 0.773733 0.498474 0.483398
53 5 0.776031 0.54325 0.431334
55 3 0.811737 0.506541 0.515088
56 5 0.817127 0.55685 0.476098
58 4 0.835355 0.499285 0.483535
ITEM: TIMESTEP
0
ITEM: NUMBER OF ATOMS
66
ITEM: BOX BOUNDS pp pp pp
-2.3407027419979162e+01 2.3407027419979162e+01
-8.7776352824922288e+00 8.7776352824922288e+00
-8.7776352824922288e+00 8.7776352824922288e+00
ITEM: ATOMS id type xs ys zs
2 5 0.0919426 0.488491 0.45888
8 5 0.1377 0.428787 0.454229
6 3 0.140905 0.490539 0.476183
10 3 0.188818 0.493215 0.477176
7 5 0.13856 0.528818 0.42279
11 5 0.182447 0.552768 0.497711
12 5 0.183028 0.442233 0.514865
15 5 0.224782 0.454013 0.553369
5 7 0.0796847 0.468794 0.564156
13 3 0.225994 0.499611 0.505083
4 6 0.100209 0.465447 0.55818
1 3 0.107641 0.502929 0.507332
3 5 0.102404 0.565121 0.521574
9 4 0.164296 0.50016 0.510504
14 5 0.224169 0.558312 0.53596
16 4 0.252752 0.494855 0.471387
20 3 0.319877 0.50066 0.482632
24 3 0.376847 0.50035 0.482173
30 4 0.449275 0.502196 0.471946
22 5 0.320195 0.444471 0.513553
26 5 0.373466 0.446228 0.514186
29 5 0.418187 0.437537 0.535135
33 5 0.479118 0.437522 0.538021
23 4 0.348072 0.497388 0.511341
27 3 0.419606 0.497218 0.504107
31 3 0.477948 0.496604 0.506334
19 5 0.276931 0.455149 0.5495
21 5 0.320898 0.554207 0.518262
25 5 0.374062 0.554893 0.515275
28 5 0.418071 0.544329 0.552113
32 5 0.47715 0.544157 0.552873
17 3 0.279237 0.501355 0.503708
18 5 0.275923 0.558952 0.532914
36 5 0.520232 0.456053 0.443289
40 5 0.582565 0.452649 0.451834
44 4 0.651709 0.496553 0.472987
48 3 0.720235 0.497205 0.479672
50 5 0.722747 0.437412 0.451563
34 3 0.521044 0.504056 0.486834
35 5 0.520707 0.560798 0.455243
38 3 0.580789 0.507613 0.487187
39 5 0.579559 0.562716 0.45147
49 5 0.723573 0.544272 0.43384
43 5 0.624479 0.450959 0.547634
47 5 0.683102 0.457379 0.552634
37 4 0.551036 0.486473 0.514222
41 3 0.623359 0.503247 0.507976
42 5 0.626931 0.559539 0.539612
45 3 0.680143 0.502055 0.505883
46 5 0.682077 0.560011 0.533594
51 4 0.746559 0.503928 0.519908
54 5 0.776541 0.435772 0.455464
57 5 0.817768 0.446119 0.497513
64 5 0.897776 0.435141 0.476337
62 3 0.892231 0.497045 0.489981
52 3 0.773733 0.498474 0.483398
58 4 0.835355 0.499285 0.483535
65 6 0.900106 0.533942 0.438856
66 7 0.920984 0.530653 0.43351
53 5 0.776031 0.54325 0.431334
56 5 0.817127 0.55685 0.476098
61 5 0.860936 0.472714 0.572699
60 5 0.861906 0.571634 0.539744
63 5 0.907773 0.512264 0.538484
59 3 0.858957 0.510092 0.519126
55 3 0.811737 0.506541 0.515088
ITEM: TIMESTEP
1000
ITEM: NUMBER OF ATOMS
66
ITEM: BOX BOUNDS pp pp pp
-2.3407027419979162e+01 2.3407027419979162e+01
-8.7776352824922288e+00 8.7776352824922288e+00
-8.7776352824922288e+00 8.7776352824922288e+00
ITEM: ATOMS id type xs ys zs
5 7 0.378383 0.471741 0.331801
8 5 0.336013 0.409343 0.438718
6 3 0.349528 0.464911 0.441336
7 5 0.372159 0.45071 0.458736
4 6 0.35863 0.474019 0.315402
9 4 0.347449 0.508107 0.48816
32 5 0.471386 0.522514 0.475696
2 5 0.360079 0.563744 0.36867
3 5 0.323925 0.518422 0.342468
1 3 0.347005 0.508864 0.362098
16 4 0.36058 0.480551 0.648335
20 3 0.407275 0.473953 0.692183
24 3 0.431468 0.491934 0.593362
22 5 0.417632 0.480132 0.750793
26 5 0.415935 0.452737 0.563674
27 3 0.462956 0.459312 0.590006
19 5 0.370558 0.466264 0.746593
21 5 0.406484 0.407776 0.677754
28 5 0.468509 0.437306 0.650574
10 3 0.33106 0.499582 0.540354
11 5 0.324487 0.436522 0.553973
29 5 0.461307 0.418113 0.538904
30 4 0.480181 0.507188 0.59093
23 4 0.423449 0.510843 0.656861
31 3 0.481595 0.541334 0.53329
25 5 0.431854 0.553882 0.570043
17 3 0.376672 0.501533 0.695605
18 5 0.3788 0.56255 0.714113
15 5 0.329803 0.555731 0.646514
14 5 0.363868 0.56745 0.588216
13 3 0.347754 0.525221 0.612511
12 5 0.311063 0.534704 0.530955
33 5 0.473871 0.600341 0.546896
44 4 0.570601 0.49737 0.372741
48 3 0.612552 0.46877 0.315331
50 5 0.605649 0.409091 0.336617
38 3 0.547223 0.487427 0.4866
39 5 0.550269 0.424019 0.475284
49 5 0.618418 0.461807 0.251781
37 4 0.523174 0.499534 0.480894
51 4 0.633837 0.493321 0.344288
54 5 0.652327 0.391938 0.337593
52 3 0.654335 0.455632 0.342786
53 5 0.666352 0.469362 0.287597
55 3 0.675823 0.465758 0.41226
56 5 0.691493 0.417389 0.417363
58 4 0.663353 0.461714 0.471396
43 5 0.589221 0.523893 0.455895
47 5 0.59608 0.578891 0.336708
41 3 0.567043 0.529359 0.429671
42 5 0.559647 0.5925 0.429579
45 3 0.586285 0.520495 0.325127
46 5 0.574153 0.526324 0.26864
57 5 0.688926 0.519748 0.400119
36 5 0.511006 0.585717 0.454514
40 5 0.556484 0.499925 0.545216
60 5 0.680261 0.462892 0.560769
63 5 0.621728 0.48202 0.545822
64 5 0.646146 0.495562 0.626787
62 3 0.640568 0.516865 0.567251
65 6 0.634932 0.581618 0.566477
35 5 0.522893 0.598391 0.547748
61 5 0.681029 0.553939 0.512867
59 3 0.667351 0.500679 0.521039
66 7 0.630323 0.601059 0.515962
34 3 0.513742 0.552385 0.509515
ITEM: TIMESTEP
2000
ITEM: NUMBER OF ATOMS
66
ITEM: BOX BOUNDS pp pp pp
-2.3407027419979162e+01 2.3407027419979162e+01
-8.7776352824922288e+00 8.7776352824922288e+00
-8.7776352824922288e+00 8.7776352824922288e+00
ITEM: ATOMS id type xs ys zs
5 7 0.324287 0.455207 0.518635
8 5 0.338547 0.563122 0.389646
6 3 0.332998 0.530821 0.44476
7 5 0.315878 0.568447 0.469285
4 6 0.314658 0.418805 0.486524