LAMMPS data file via write_data, version 29 Sep 2021, timestep = 10000

1350 atoms
7 atom types
921 bonds
6 bond types
546 angles
9 angle types
74 dihedrals
14 dihedral types

-22.34465586326391 22.34465586326391 xlo xhi
-8.777635282492229 8.777635282492229 ylo yhi
-8.777635282492229 8.777635282492229 zlo zhi

Masses

1 15.9994
2 1.008
3 12.011
4 15.9994
5 1.008
6 15.9994
7 1.008

Pair Coeffs # lj/cut/tip4p/long

1 0.18479 3.165
2 0 0
3 0.056 3.58141
4 0.1 2.93997
5 0.035 2.38761
6 0.192 3.14487
7 0.046 0.40001

Bond Coeffs # harmonic

1 0 0.9572
2 222.35 1.53
3 308.79 1.1111
4 359.76 1.1415
5 427.715 1.142
6 544.635 0.96

Angle Coeffs # charmm

1 0 104.52 0 0
2 50 109 0 0
3 26.5 110.1 22.53 2.179
4 45 111.5 0 0
5 13.0258 109.4 0 0
6 35.5 109 5.4 1.802
7 55 108.89 0 0
8 75.7 110.1 0 0
9 95 109.7 0 0

Dihedral Coeffs # charmm

1 0.57 1 0 0
2 0.29 2 0 0
3 0.43 3 0 0
4 0.59 1 180 0
5 1.16 2 0 0
6 0.12 1 0 0
7 0.42 2 0 0
8 0.29 3 0 0
9 2.87 1 180 0
10 0.03 2 0 0
11 0.23 3 0 0
12 1.36 1 180 0
13 0.16 2 0 0
14 1.01 3 0 0

Atoms # full

363 100 2 0.527 -15.433973604492845 -1.8026228997236755 -4.376545885055513 0 0 0
173 37 2 0.527 -13.675719551078307 -8.49300622220123 -4.218368689593791 0 0 0
362 100 2 0.527 -14.967454095975214 -0.5635937020086796 -3.6423368235930367 0 0 0
361 100 1 -1.054 -15.050713736038258 -1.5125642997178552 -3.5487712154207003 0 0 0
1802 580 2 0.527 -16.58187350640644 -1.151862022786581 -0.8820941929669202 1 1 0
1801 580 1 -1.054 -16.34737929275781 -2.0685485269207247 -1.0267697370823292 1 1 0
979 306 1 -1.054 -12.738861653928508 -1.9911956221226612 -1.7679732713029814 0 0 1
1803 580 2 0.527 -16.074604894110227 -2.104671125268424 -1.9435696981921762 1 1 0
493 144 1 -1.054 -18.87941307909891 -2.310193948913855 -4.757743937073714 0 0 0
494 144 2 0.527 -19.375049234117526 -1.6139342670093724 -5.188790172941305 0 0 0
981 306 2 0.527 -12.980171941502476 -1.079491853787803 -1.9316772846347323 0 0 1
1727 555 2 0.527 -17.07677017556112 -2.364083767440939 -5.337865592357412 1 1 0
1728 555 2 0.527 -16.37974207655957 -1.7973406020888447 -6.556410850960477 1 1 0
1726 555 1 -1.054 -16.242210604600594 -2.376070558979631 -5.806484458928631 1 1 0
269 69 2 0.527 -18.14422341549964 -6.192498569436662 0.4565418829508232 0 1 0
482 140 2 0.527 -11.183375888094417 -3.988485235135501 -4.453564546302007 0 0 1
483 140 2 0.527 -12.23664262561576 -5.013058142698307 -4.089173639052119 0 0 1
495 144 2 0.527 -19.104594797799248 -2.2267770926512105 -3.8311545932790576 0 0 0
980 306 2 0.527 -12.957143700270741 -2.446907460207311 -2.580938403817994 0 0 1
1957 632 1 -1.054 -16.360724171449206 -4.93885298627463 -2.4797987907823806 1 1 0
1959 632 2 0.527 -17.12015225851739 -5.518120553490243 -2.542679805077114 1 1 0
423 120 2 0.527 -15.132754921608216 -3.3711608327013476 -6.750950471634418 0 0 0
436 125 1 -1.054 -20.38957634483758 -2.615765726316278 -2.223891841426515 0 1 -1
464 134 2 0.527 -16.206281397154022 -5.285457739987381 -4.4225483802345344 0 1 0
421 120 1 -1.054 -14.72485436164472 -4.149343539471337 -7.130795494133171 0 0 0
463 134 1 -1.054 -16.327562831902167 -5.767345858002635 -5.240659982779155 0 1 0
523 154 1 -1.054 -17.251633161294826 -7.919053076063447 -6.393740976039783 0 1 0
525 154 2 0.527 -16.892725361188276 -7.177935397192815 -5.905722061055217 0 1 0
524 154 2 0.527 -16.490098692820702 -8.459733151010129 -6.603420155531005 0 1 0
220 53 1 -1.054 -13.798426560175027 -5.539587808733237 -3.2365835730610737 0 1 0
422 120 2 0.527 -15.012711351879027 -4.149825525178916 -8.043686790506783 0 0 0
1958 632 2 0.527 -16.661302487279492 -4.206667149771514 -1.9414779883548396 1 1 0
221 53 2 0.527 -13.540850922328536 -6.433184880594898 -3.00993036680358 0 1 0
222 53 2 0.527 -14.743617076296339 -5.517050671112337 -3.0871018573284115 0 1 0
481 140 1 -1.054 -11.47767390434028 -4.876487904427584 -4.656227466185258 0 0 1
384 107 2 0.527 -18.08327862913743 -5.334854232952431 -5.158692082685786 0 0 0
318 85 2 0.527 -17.601011350911126 -2.966909667296469 -8.439868931182994 0 0 1
465 134 2 0.527 -15.637635337794595 -5.438920533067787 -5.817176588503298 0 1 0
120 19 2 0.527 -17.446527725146016 -6.782958903220227 -7.778450124667323 0 0 0
2087 675 2 0.527 -20.580500368184556 -0.1390115952838027 -0.7460279858697234 1 1 0
1107 348 2 0.527 -12.302489527789875 -5.589824340280371 -6.245105050856415 0 0 0
457 132 1 -1.054 -11.456192782873494 0.5443486892431864 3.476857021058784 0 0 0
383 107 2 0.527 -18.937390299010637 -4.111040582300291 -4.904381503345663 0 0 0
382 107 1 -1.054 -18.983432758100825 -5.014595924676236 -5.216953183851977 0 0 0
438 125 2 0.527 -19.831210838513332 -2.6221221977470153 -1.4464465219111098 0 1 -1
190 43 1 -1.054 -18.979975346829153 -2.9476285634606203 0.0375265038959558 0 0 0
316 85 1 -1.054 -16.993678452324854 -2.297537341751398 -8.755022436992547 0 0 1
1105 348 1 -1.054 -12.652739708304617 -6.093468722237713 -6.979883825513978 0 0 0
317 85 2 0.527 -17.556624674406173 -1.6194712699878195 8.426681371330668 0 0 0
611 183 2 0.527 -12.686493926951742 -1.2386267984730894 -7.923396423476693 0 0 1
305 81 2 0.527 -20.947516656260095 -7.542825143557623 -4.180170785123634 0 0 0
437 125 2 0.527 -20.71996709308682 -3.5117470117982394 -2.289405413937346 0 1 -1
455 131 2 0.527 -21.456818763347435 -2.1743131582583706 -6.58848550213379 0 1 0
308 82 2 0.527 -17.764686023078674 -7.541088982666008 -1.9763753374553943 0 1 0
307 82 1 -1.054 -18.482603079258556 -6.919811066623715 -2.0982150532275625 0 1 0
309 82 2 0.527 -19.15268556954761 -7.202308269078487 -1.4757847487525 0 1 0
147 28 2 0.527 -12.77039188575574 -7.813493516891834 -6.462360156638356 0 1 0
306 81 2 0.527 -19.61437821138755 -7.722518368625838 -3.485651156382221 0 0 0
1096 345 1 -1.054 -15.026616735769831 8.210270606085958 -6.983580257436372 0 0 0
1098 345 2 0.527 -14.264526372760082 8.607529927299167 -6.562108462271006 0 0 0
519 152 2 0.527 -18.802030049251883 -8.622947274008569 -6.7587212287198986 0 0 1
146 28 2 0.527 -11.92941684572238 -8.776504375610559 -5.651638035952967 0 1 0
145 28 1 -1.054 -12.8348904455176 -8.578561720846022 -5.890745989597675 0 1 0
2065 668 1 -1.054 -21.657872147432414 2.8334280714667095 8.131396140586387 1 0 -1
1760 566 2 0.527 -21.294877993401446 -1.4421371224929302 -8.448381439014753 1 0 0
531 156 2 0.527 -18.422017858278313 -5.089565777180866 -8.47019059256362 0 1 0
530 156 2 0.527 -19.052708881441042 -4.53043519913122 -7.212613865638113 0 1 0
529 156 1 -1.054 -18.93334856166397 -4.348694808167158 -8.14479168601912 0 1 0
170 36 2 0.527 -20.637741357196408 0.5232949496211816 -7.9103790176208255 0 0 0
454 131 1 -1.054 -21.04771751868435 -1.3201901126143065 -6.727563942977284 0 1 0
1767 568 2 0.527 -21.453548801426802 7.205428981163758 -8.504020364788193 1 0 0
610 183 1 -1.054 -11.889049863962873 -1.7593179908339867 -8.019312471893846 0 0 1
2070 669 2 0.527 -21.142617745913476 -5.543591093033402 -4.84403018353624 1 0 0
1106 348 2 0.527 -13.368721489225935 -5.55645102925086 -7.31931989595937 0 0 0
192 43 2 0.527 -18.470127777803746 -2.467452207641342 0.6899983428086003 0 0 0
960 299 2 0.527 -12.013189325371874 1.9823452180423686 -1.7433881177336366 0 0 0
172 37 1 -1.054 -13.950526302191033 -8.741509387325761 -3.3357813851637106 0 0 0
174 37 2 0.527 -14.902833957995497 -8.645255421549193 -3.3449178898816925 0 0 0
104 14 2 0.527 -16.420711554501874 7.647146082380788 -2.190634993465137 0 -1 0
2088 675 2 0.527 -19.265200577079113 0.393180266684384 -0.21814237418067606 1 1 0
514 151 1 -1.054 -20.70360913821059 2.223448440075833 2.8449496342351193 0 0 0
618 185 2 0.527 -21.385289557035577 1.3948504196827454 -5.792213925115428 0 0 -1
319 86 1 -1.054 -14.407066567327366 4.2813019882305205 7.831214918500089 0 0 0
235 58 1 -1.054 -17.89917229678305 0.48726654290138605 8.531900870656672 0 0 -1
105 14 2 0.527 -15.933982114922769 -8.604598640482106 -1.5941357702700625 0 0 0
103 14 1 -1.054 -16.422520300239686 8.593295521747757 -2.3356516027036465 0 -1 0
617 185 2 0.527 -21.86084142291848 1.1438822753486093 -4.377024212897086 0 0 -1
2086 675 1 -1.054 -20.05737404647371 0.6602211468018275 -0.6843887152206491 1 1 0
477 138 2 0.527 -21.746461288552368 6.0925675099165115 -3.14754230539953 0 0 0
236 58 2 0.527 -18.591018745322533 0.7889084281953345 -8.434646165975119 0 0 0
452 130 2 0.527 -11.637159206212864 3.9382838997461302 -0.6995084792921382 0 1 0
887 275 2 0.527 -21.940195781248654 -5.997973528017043 -1.6268901520111587 0 1 0
237 58 2 0.527 -17.108950546445477 0.9276515756159718 -8.71056633842061 0 0 0
413 117 2 0.527 -14.86272992174739 1.6838620864263358 -3.9817315291026 0 0 0
412 117 1 -1.054 -15.413730491606522 1.3823499501080772 -3.259428045277943 0 0 0
414 117 2 0.527 -15.14898995757477 1.921718937665693 -2.5142932968279172 0 0 0
304 81 1 -1.054 -20.189776321679354 -8.125983603396733 -4.135548923454996 0 0 0
476 138 2 0.527 -20.935861719008336 7.288089512232796 -3.6009237882905065 0 0 0
803 247 2 0.527 -21.490854907868684 4.36284363129238 -6.8269953452735965 0 0 -1
535 158 1 -1.054 -15.653138912755312 1.7593594078404688 0.990023746727724 0 0 0
536 158 2 0.527 -15.113461217662781 2.2305068457304706 0.3551994626928838 0 0 0
492 143 2 0.527 -21.381185449544073 1.9265934721130655 -0.18984782931956445 0 0 0
350 96 2 0.527 -21.149086499368337 5.555380471148073 -1.054159829922332 0 0 -1
694 211 1 -1.054 -12.50593027464409 4.2773469458642595 -6.542384249858491 0 -1 0
904 281 1 -1.054 -18.087053661566234 6.168382692179572 -0.3781328830318458 0 0 1
521 153 2 0.527 -20.359128179624502 1.6775686044602907 -2.3369776827592625 0 0 0
520 153 1 -1.054 -20.567904717361806 2.1339601793280405 -3.1520551232505243 0 0 0
1952 630 2 0.527 -18.12452402675077 3.198024762599834 -5.79934408941457 1 0 0
522 153 2 0.527 -19.78145182047235 2.642124490814888 -3.350791861855445 0 0 0
1097 345 2 0.527 -14.822106212914484 7.275792139395618 -7.017603935802992 0 0 0
906 281 2 0.527 -17.739221543576356 5.893868664228792 0.4703288987500329 0 0 1
558 165 2 0.527 -17.586230340186642 3.7265611081417376 -3.8018188840617766 0 0 0
1953 630 2 0.527 -19.108968609740334 3.925143727717513 -6.690448702374752 1 0 0
1951 630 1 -1.054 -18.18398505649617 3.689632632697734 -6.618500962469614 1 0 0
340 93 1 -1.054 -16.70366791421405 5.743929530965337 -4.760710812621748 0 0 0
342 93 2 0.527 -16.20235157931848 5.546883690408256 -5.551968147801545 0 0 0
341 93 2 0.527 -17.1506439596046 6.566919724979513 -4.958530487534609 0 0 0
905 281 2 0.527 -17.407649264886558 5.923872396835861 -1.0065108437861072 0 0 1
310 83 1 -1.054 -16.07531750782913 5.652105965339871 -2.177912120344863 0 0 0
312 83 2 0.527 -15.296842900170507 6.063668820715193 -1.8026406133936996 0 0 0
475 138 1 -1.054 -21.387549436222564 6.924659930311186 -2.8392608434051683 0 0 0
349 96 1 -1.054 -20.9050199313433 5.213461523061232 -0.19406919810314527 0 0 -1
556 165 1 -1.054 -17.962810481464235 2.846566292565205 -3.796376527372365 0 0 0
781 240 1 -1.054 -14.530423707411453 3.4565296771870475 -1.435831049887633 0 -1 1
695 211 2 0.527 -12.091739059352973 3.7799094846283534 -7.247532847263873 0 -1 0
783 240 2 0.527 -14.877729529948933 4.143773754428166 -2.004432243620413 0 -1 1
311 83 2 0.527 -16.065406473810754 5.914513455166711 -3.098388063697662 0 0 0
351 96 2 0.527 -20.00817992294456 5.519823412779612 -0.059689866729197405 0 0 -1
557 165 2 0.527 -17.3337211524191 2.319362637787437 -3.3038956033973523 0 0 0
490 143 1 -1.054 -21.980787836273677 2.573830858787158 0.18135926356467813 0 0 0
333 90 2 0.527 -18.394262662646142 6.218604012650527 8.731858632428187 0 0 -1
314 84 2 0.527 -21.99714185423419 3.3354602886071056 -3.0426680797038834 0 0 -1
518 152 2 0.527 -19.802540871828633 8.747352412487716 -5.637710602941721 0 -1 1
983 307 2 0.527 -16.780649160675203 2.7432854071746338 -7.400131651031836 0 0 -1
517 152 1 -1.054 -19.539389245870986 8.387009782195127 -6.484549870061368 0 -1 1
79 6 1 -1.054 -14.029583949475377 2.113123880826059 -5.402414505264819 0 0 0
80 6 2 0.527 -13.387115405679017 1.4222029710081188 -5.563958790366151 0 0 0
982 307 1 -1.054 -16.117356613280755 2.053429607770358 -7.4195289867192304 0 0 -1
81 6 2 0.527 -13.601089397451066 2.9144087464987134 -5.703359439808445 0 0 0
984 307 2 0.527 -15.439495705739244 2.3551913616889983 -6.814815150873805 0 0 -1
491 143 2 0.527 -21.580431875616213 3.4183048387016743 -0.025550222747051876 0 0 0
704 214 2 0.527 -13.987278998313743 7.660814730916636 -2.1360079122086404 0 0 0
703 214 1 -1.054 -13.902517146884351 6.9738508892754485 -1.4748512456549383 0 0 0
802 247 1 -1.054 -20.668727101192072 4.481492049667857 -7.302668137482826 0 0 -1
840 259 2 0.527 -14.373943816303875 1.229598110854889 -7.940399016658388 0 0 1
992 310 2 0.527 -14.097559039559338 7.504915433216295 1.6621964769559447 0 0 0
705 214 2 0.527 -13.183391344043509 6.42579023941277 -1.7890524118616407 0 0 0
782 240 2 0.527 -13.76267463820997 3.851884407202135 -1.0229251003391377 0 -1 1
838 259 1 -1.054 -13.561291433119608 0.8388340398120224 -8.261546289461924 0 0 1
804 247 2 0.527 -20.918175880224013 4.4441603628358575 -8.226039380022293 0 0 -1
321 86 2 0.527 -13.992137918136525 3.483544012788702 7.503114751773635 0 0 0
431 123 2 0.527 -15.339171264271794 5.019509671556348 -7.679957337349024 0 0 0
480 139 2 0.527 -11.870547106887038 6.78909062195984 3.595590811866048 0 0 0
432 123 2 0.527 -14.089532910123356 4.870791294569566 -6.838416632395197 0 0 0
430 123 1 -1.054 -14.99585234585683 5.176356840363447 -6.800319013603154 0 0 0
537 158 2 0.527 -15.024300514788639 1.2893072943507136 1.537608034412333 0 0 0
332 90 2 0.527 -17.555403233365233 5.206315575313699 -8.072754778005768 0 0 0
169 36 1 -1.054 -20.12574932085897 1.3280028230338043 -7.829490367845068 0 0 0
171 36 2 0.527 -20.67759233010391 2.004096573391095 -8.222684637472447 0 0 0
696 211 2 0.527 -11.776699484145972 4.688842156631777 -6.078564308912034 0 -1 0
478 139 1 -1.054 -11.601885986462056 6.176271855294207 2.9111153339975413 0 0 0
268 69 1 -1.054 -17.632387851748327 -6.484036638275195 1.2110374549759442 0 1 0
130 23 1 -1.054 -19.33229472279574 -5.0935772136530115 3.3682705082610873 0 0 0
132 23 2 0.527 -19.992809524355433 -5.754970799132008 3.1620836857482324 0 0 0
270 69 2 0.527 -18.014974866386886 -6.018651214332883 1.9548633650996763 0 1 0
118 19 1 -1.054 -17.51659422241773 -6.495697137624725 -8.688836465230136 0 0 0
515 151 2 0.527 -21.349800387798773 2.3180441227344293 2.145147550270078 0 0 0
896 278 2 0.527 -13.883404554986553 -3.1070773682748296 6.547987819449837 0 0 0
131 23 2 0.527 -19.83464197600558 -4.295006646484468 3.5300281132927616 0 0 0
119 19 2 0.527 -18.00250997433961 -7.19581130732865 8.430591056878525 0 0 -1
550 163 1 -1.054 -13.329280592545674 -6.218702244523181 5.104945390847407 0 0 -1
895 278 1 -1.054 -13.28921536035901 -2.5081669570560603 7.0001816974652495 0 0 0
157 32 1 -1.054 -22.229723492253832 -7.681609793191309 -0.8875839099216938 0 1 0
417 118 2 0.527 -14.01718851898341 -3.5353702171251884 -0.06334941700745489 0 1 0
406 115 1 -1.054 -19.82062132989107 -3.1795192993022994 7.259937596276826 0 1 0
416 118 2 0.527 -15.379193294335373 -3.4176410558466186 0.5870261552380125 0 1 0
415 118 1 -1.054 -14.506413230698586 -3.787602790068706 0.7197674393307896 0 1 0
1049 329 2 0.527 -15.67968123503269 -7.044529072639568 0.21309679031109674 0 0 0
1766 568 2 0.527 -20.87063701003132 8.000774473268327 -7.3553095432102875 1 0 0
513 150 2 0.527 -21.775873884827945 -7.243296927304646 2.5366054443940484 0 0 0
408 115 2 0.527 -19.449434046863814 -3.65870268978236 8.000772230070138 0 1 0
407 115 2 0.527 -20.48039166635965 -2.6067399187062907 7.650912332771837 0 1 0
511 150 1 -1.054 -21.43775660638339 -6.604389807118489 3.1640661821082574 0 0 0
2014 651 1 -1.054 -18.05898807637655 -1.2030371169659624 2.702107174923878 1 1 0
933 290 2 0.527 -17.784878173310073 -0.3143356349400417 1.2008091776244338 0 0 0
2016 651 2 0.527 -17.34157614622785 -1.0502387272100355 3.3170932721951463 1 1 0
1048 329 1 -1.054 -15.115832128487707 -7.607475121788824 -0.31737466059082564 0 0 0
1050 329 2 0.527 -14.454221811662258 -7.929676550659222 0.29474695225029635 0 0 0
2015 651 2 0.527 -18.709953464449182 -1.688741736433875 3.2086350076408756 1 1 0
779 239 2 0.527 -13.303966279752629 -2.971231184747559 1.9406249716524915 0 0 0
780 239 2 0.527 -11.927446697241242 -2.376433844459064 1.7324993236143111 0 0 0
71 3 2 0.527 -16.475342110299003 -0.9565513352838746 5.20143782327383 0 0 0
1759 566 1 -1.054 -21.556415898697903 -1.4431380491588177 8.186112729374065 1 0 -1
70 3 1 -1.054 -16.02327031311737 -0.2233355606257703 4.783994758071302 0 0 0
272 70 2 0.527 -12.370084455686085 -5.253173997163854 2.3340668741625663 0 0 0
273 70 2 0.527 -13.750564512624257 -5.3495924443122105 1.72015777591659 0 0 0
101 13 2 0.527 -16.004149946045043 -6.0172940036025135 8.147640202099 0 0 -1
100 13 1 -1.054 -15.199505251759373 -5.523920296546034 7.988377175052902 0 0 -1
600 179 2 0.527 -15.989836685470888 -4.5395944554284045 5.367963058818805 0 0 0
598 179 1 -1.054 -15.135945082045918 -4.311652697081973 5.735587180595314 0 0 0
512 150 2 0.527 -21.642723371195938 -6.978089803719365 4.02113620138981 0 0 0
599 179 2 0.527 -15.087055853169858 -4.806311872082253 6.553605618380942 0 0 0
102 13 2 0.527 -14.497023415091295 -6.159002927470484 8.127746672881 0 0 -1
200 46 2 0.527 -20.923236061119237 -2.1114338856485064 3.8078521488626684 0 0 -1
199 46 1 -1.054 -20.158058013392615 -2.554304168923828 4.174737021979665 0 0 -1
201 46 2 0.527 -20.195268170139794 -2.36123283596517 5.1115246832686285 0 0 -1
552 163 2 0.527 -13.942171762098404 -5.483879257935877 5.130115004806104 0 0 -1
2002 647 1 -1.054 -15.475447456134017 -7.585728389855212 3.5647451779327195 1 1 -1
2004 647 2 0.527 -14.766393058552385 -6.945514933394665 3.624771656208287 1 1 -1
778 239 1 -1.054 -12.600870388921274 -2.5112772806247463 2.399247351773516 0 0 0
299 79 2 0.527 -16.786022121921064 -2.6930046293140304 6.503870111892747 0 0 -1
298 79 1 -1.054 -17.438321334499065 -2.27415649474079 5.942348317130731 0 0 -1
300 79 2 0.527 -18.280016215587676 -2.544208325794706 6.309579144112318 0 0 -1
958 299 1 -1.054 -11.83471900604024 1.0876856016431393 -2.033155479727248 0 0 0
271 70 1 -1.054 -13.212188132602558 -5.69783941724108 2.4308681566496517 0 0 0
2020 653 1 -1.054 -17.68187681472584 -6.489907186631921 5.164734693282412 1 0 0
2021 653 2 0.527 -18.282137781950706 -6.0032493257233295 4.599857423118538 1 0 0
2022 653 2 0.527 -17.061608095442754 -6.898053675563157 4.560650315582572 1 0 0
2003 647 2 0.527 -15.152606684073064 -8.24443931247865 2.9498415835049574 1 1 -1
2132 690 2 0.527 -11.820967239773447 -2.6750554387641294 4.410858948494882 1 -1 -1
628 189 1 -1.054 -21.58089209063889 -7.248134195300308 6.039584430800824 0 0 0
630 189 2 0.527 -20.76027422367154 -7.372757517945517 6.516334764432534 0 0 0
1091 343 2 0.527 -13.806096855554708 -0.8202842978364764 6.805330551001417 0 0 0
425 121 2 0.527 -13.43163462585666 -7.135494765479366 6.873433557355378 0 0 0
426 121 2 0.527 -12.527703720439332 -7.907766480818818 7.810666156843636 0 0 0
424 121 1 -1.054 -13.405841726706106 -7.532724021321619 7.743936610212122 0 0 0
927 288 2 0.527 -13.585098341395472 -0.8184164790654176 2.339729268691716 0 0 0
249 62 2 0.527 -15.692418175964605 8.409055787686677 -8.61346860212351 0 0 1
545 161 2 0.527 -20.466840435324904 5.313228182244277 4.9456047466287565 0 0 -1
239 59 2 0.527 -13.117687714344719 7.84229089374829 5.1870426824684674 0 0 0
1854 597 2 0.527 -22.165752332431737 0.9442403367298979 5.294912412422066 1 0 -1
510 149 2 0.527 -18.377905386525672 -7.864183337277425 6.290680976339919 0 1 0
72 3 2 0.527 -16.60021156421061 0.5269839126852727 4.926799591741986 0 0 0
991 310 1 -1.054 -14.120120288577828 8.419348673857042 1.9442161820900843 0 0 0
993 310 2 0.527 -13.199452534409943 8.672290039190747 2.012257013189725 0 0 0
238 59 1 -1.054 -12.207576366921463 7.5616329327642315 5.091309120562466 0 0 0
516 151 2 0.527 -19.864401531537865 2.408273242342746 2.423277974337992 0 0 0
897 278 2 0.527 -12.589358548106357 -2.3421070909001074 6.36862861516998 0 0 0
474 137 2 0.527 -21.379034292730758 -4.657114175065281 7.133446325263002 0 1 -1
612 183 2 0.527 -12.026390582232255 -2.2630434715144983 8.733691549042009 0 0 0
555 164 2 0.527 -20.412717711690128 5.947798937345928 6.818253275875017 0 0 -1
544 161 1 -1.054 -21.12021900073781 4.76235825596493 5.376735865110891 0 0 -1
156 31 2 0.527 -18.656542562961352 8.171744060940684 1.7033353043958641 0 0 0
546 161 2 0.527 -20.798735859273055 3.868979260587306 5.255262078021417 0 0 -1
88 9 1 -1.054 -12.479131100937154 3.7767326546654854 4.412544236429728 0 0 -1
1090 343 1 -1.054 -14.11093016361381 0.08388936671854808 6.729310454930991 0 0 0
839 259 2 0.527 -13.744896338342743 0.6199559821581726 8.38015157163768 0 0 0
985 308 1 -1.054 -20.398769825608834 2.0911472123568977 5.635470346376884 0 0 -1
532 157 1 -1.054 -17.626110585084646 4.887116314728974 6.030065391697482 0 0 0
154 31 1 -1.054 -18.023290584300376 8.105082562547063 2.418025654918001 0 0 0
548 162 2 0.527 -18.843655702793804 6.941814356507267 3.5973556229673758 0 0 0
500 146 2 0.527 -14.790209271718162 6.232503778621595 5.145758803554692 0 0 0
932 290 2 0.527 -16.770133378604463 0.5771900400709846 0.5171602471177383 0 0 0
240 59 2 0.527 -11.756496248021758 7.950229683851896 5.840810476336607 0 0 0
553 164 1 -1.054 -20.141667892922577 6.362915576463738 7.637059131345341 0 0 -1
931 290 1 -1.054 -17.56983888643729 0.07705112304094364 0.3541647935914227 0 0 0
554 164 2 0.527 -20.084618384119096 7.294867591090535 7.426244446827843 0 0 -1
2131 690 1 -1.054 -11.519692451076114 -2.173853315629521 5.168660441723345 1 -1 -1
267 68 2 0.527 -11.76233415789833 2.5240544871246424 8.370709683812867 0 0 0
501 146 2 0.527 -15.741690715468748 5.05998002587401 5.037263782960382 0 0 0
549 162 2 0.527 -19.005357572002648 7.477817700106696 5.0039289066464026 0 0 0
193 44 1 -1.054 -14.885523028542307 8.055629005589457 5.512710774866283 0 0 -1
2120 686 2 0.527 -17.639878525632724 3.0346674441021513 5.928904451274187 1 0 -1
209 49 2 0.527 -13.343468411135198 1.572809681477814 6.6236665239983665 0 0 -1
451 130 1 -1.054 -12.075870834659034 3.3709572673778077 -0.06554819103384268 0 1 0
210 49 2 0.527 -12.747618535588462 2.790512845628065 5.949827263391377 0 0 -1
344 94 2 0.527 -21.683889889745505 -3.0530814421315773 1.7263446230811503 0 0 0
1092 343 2 0.527 -14.701072632854444 0.07563170374650952 5.975720687972615 0 0 0
1995 644 2 0.527 -21.976622126473313 6.027650041734162 0.7928175722141084 1 0 0
168 35 2 0.527 -13.600346316002126 4.822921928793978 1.1476700277783127 0 -1 0
534 157 2 0.527 -17.743273473447463 5.129381355484895 6.948658390550209 0 0 0
567 168 2 0.527 -16.84657098252103 6.642369280144592 2.368837735558486 0 -1 0
331 90 1 -1.054 -17.4920140494243 5.92126720624854 -8.706046255384695 0 0 0
565 168 1 -1.054 -16.78608397641145 5.6872277507173195 2.385537385730281 0 -1 0
566 168 2 0.527 -15.863408868013078 5.502093472986363 2.2105095427928454 0 -1 0
616 185 1 -1.054 -22.094738728242138 0.9908580075881819 -5.292506900309005 0 0 -1
354 97 2 0.527 -11.606311847071412 0.845529926014903 -3.6214600291943784 0 0 0
206 48 2 0.527 -20.11439541741769 8.670000589881633 -0.6239041592337298 0 -1 0
986 308 2 0.527 -20.483503670710135 1.8866880232456804 4.704208469628979 0 0 -1
2068 669 1 -1.054 -22.020047423571363 -5.830087121345996 -4.590508493494522 1 0 0
533 157 2 0.527 -17.92784475055207 5.651867652895204 5.53981580651045 0 0 0
205 48 1 -1.054 -19.346931860860078 8.641635704077151 -0.052563219266504646 0 -1 0
925 288 1 -1.054 -14.070010783763216 -0.00429129256996319 2.4749853255545418 0 0 0
166 35 1 -1.054 -14.047980371093235 5.3223729025667765 1.8306091419095551 0 -1 0
167 35 2 0.527 -13.373640201323521 5.484668040706394 2.49027652657435 0 -1 0
207 48 2 0.527 -18.817753931238354 7.922231838312198 -0.397038910730652 0 -1 0
208 49 1 -1.054 -12.752650288739895 2.3100017821899748 6.777665247784379 0 0 -1
225 54 2 0.527 -17.709722942154453 4.295521228307997 2.363886854256126 0 0 0
224 54 2 0.527 -17.442893429237266 2.8760175180736827 1.9103376965750805 0 0 0
223 54 1 -1.054 -18.149557336418848 3.5075067541796177 2.0448072193038005 0 0 0
320 86 2 0.527 -14.525631797116437 4.8272505843639255 7.053966718609338 0 0 0
508 149 1 -1.054 -18.590972879672655 -8.612935492127884 6.847641126525714 0 1 0
547 162 1 -1.054 -19.21897321475971 6.726170861421666 4.451092913967464 0 0 0
195 44 2 0.527 -15.108878199763186 8.769924562478467 4.915945667910213 0 0 -1
509 149 2 0.527 -17.798068247646885 -8.762272862566347 7.362651756027221 0 1 0
2119 686 1 -1.054 -17.59545668716806 2.079014262964673 5.8975071088600775 1 0 -1
2121 686 2 0.527 -17.55749889408599 1.8102458335150935 6.815415097685406 1 0 -1
248 62 2 0.527 -16.519268697701115 7.270596677530831 8.383117853648136 0 0 0
194 44 2 0.527 -15.155849203812473 8.370223200273172 6.375373814290532 0 0 -1
987 308 2 0.527 -19.456620944021914 2.0640232303645902 5.802372985678469 0 0 -1
459 132 2 0.527 -12.386435688855185 0.3914626142787778 3.3109912929525347 0 0 0
926 288 2 0.527 -14.724117918571405 -0.22205164658194754 3.1390329434127526 0 0 0
90 9 2 0.527 -12.03132692017608 4.585111983969886 4.661998104920135 0 0 -1
499 146 1 -1.054 -14.81709842150337 5.275771948538418 5.158916907086235 0 0 0
155 31 2 0.527 -17.55450670814144 -8.615793045531463 2.4019082260865616 0 1 0
89 9 2 0.527 -13.407682710843275 3.9647706508458693 4.54918413088892 0 0 -1
247 62 1 -1.054 -16.238843032503272 8.166125631886752 8.194380866575974 0 0 0
765 234 2 0.527 -11.34031155598035 -2.28402324365981 -0.7160624160824529 0 0 0
345 94 2 0.527 -22.036795874712706 -4.468752145477926 1.3223276223168536 0 0 0
87 8 2 0.527 -21.736881407015087 -1.3804670601294582 -2.466742693512371 0 0 0
191 43 2 0.527 -19.748016513347743 -3.2602414660384236 0.5156703004032046 0 0 0
352 97 1 -1.054 -11.488369124035135 0.5797966014352429 -4.533439945413799 0 0 0
551 163 2 0.527 -12.866759773119625 -6.117051920080947 4.27309521447175 0 0 -1
886 275 1 -1.054 -21.872101289154404 -5.153827517426643 -2.072998451013828 0 1 0
2069 669 2 0.527 -22.160294750513067 -5.439210796630595 -3.728082579528632 1 0 0
343 94 1 -1.054 -21.637903072794444 -3.6641668168260733 0.9910267241580186 0 0 0
2067 668 2 0.527 -21.152863357255498 2.2896650427505723 7.5268121476615 1 0 -1
629 189 2 0.527 -21.849945765271823 -6.354979299326186 6.254332572351688 0 0 0
1765 568 1 -1.054 -21.701529273618373 7.764289322455168 -7.767533363902806 1 0 0
456 131 2 0.527 -21.519195854684497 -0.7297330787153289 -6.1399400209599975 0 1 0
472 137 1 -1.054 -22.190587270773744 -4.799898076158655 6.646383316866633 0 1 -1
453 130 2 0.527 -11.381649676111252 3.100999135172982 0.53562904344491 0 1 0
2133 690 2 0.527 -11.297896756461938 -1.312831373340055 4.814145527355571 1 -1 -1
1077 338 2 0.527 -11.26672420782383 -1.3164449933075817 -4.097634461778765 0 0 0
561 166 2 0.527 -22.182177347154443 -4.149941190103823 -5.729253902465635 0 1 0
29 1 5 0.09 -1.7788594196738075 -3.2132451823550214 -4.4942382699371235 0 0 0
26 1 5 0.09 -4.130815262654618 -2.4645705999667697 -4.982634247125187 0 0 0
24 1 3 -0.01 -3.6170866239513906 -1.843292859665869 -4.175246384362653 0 0 0
25 1 5 0.09 -3.476593491175315 -0.827974531090856 -4.661325499502754 0 0 0
30 1 4 -0.34 -1.383724282758081 -1.7380423994648035 -3.7747898140124168 0 0 0
27 1 3 -0.01 -2.2748329786620793 -2.4994220641415836 -3.8269319872176215 0 0 0
589 176 1 -1.054 -9.99951379199322 -6.387468740641953 -8.037221831237051 0 1 0
22 1 5 0.09 -5.661627000971134 -1.144591539694419 -2.780451727613926 0 0 0
20 1 3 -0.01 -4.49390134624273 -1.2164290308271042 -2.6308959190785766 0 0 0
23 1 4 -0.34 -4.350962820161797 -2.0737305687523504 -3.3715773421259954 0 0 0
28 1 5 0.09 -2.43462644886867 -3.1615577231618737 -2.9133897336542436 0 0 0
962 300 2 0.527 -3.334989286502431 -5.617450659289536 8.283237587820006 0 0 -1
730 223 1 -1.054 -6.822664015245859 -6.505739055835734 8.43932988128889 0 1 0
731 223 2 0.527 -7.615574909796866 -6.2846670612551305 -8.62741693521948 0 1 1
732 223 2 0.527 -6.110945620964252 -6.118697480397184 -8.606145136403528 0 1 1
392 110 2 0.527 -8.707862672181044 -6.569055747532109 -5.528456040137624 0 1 1
1099 346 1 -1.054 -5.2119201592115445 -5.232242036226922 -6.942906962145504 0 0 1
1013 317 2 0.527 -5.1332534120803395 -3.8396049127995795 -2.769294763148629 0 0 0
338 92 2 0.527 -7.166280979002927 -4.059034052712303 -3.039080753656524 0 0 0
1014 317 2 0.527 -5.56642304133036 -5.163890570036752 -2.1772406348072577 0 0 0
1101 346 2 0.527 -4.921665982518483 -5.456150730650711 -6.0586836656003795 0 0 1
1012 317 1 -1.054 -5.572830248166763 -4.660408272935301 -2.9913023380610184 0 0 0
1079 339 2 0.527 -7.041067303418181 -1.8173130931217365 -0.7665765337591477 0 -1 0
1100 346 2 0.527 -5.455667095827273 -4.3081850819447185 -6.888693731507454 0 0 1
1495 478 1 -1.054 -2.081567398581111 -4.814893443689952 -6.748180753179849 0 0 0
1078 339 1 -1.054 -7.94793230018867 -1.599928005096662 -0.9823926014146096 0 -1 0
1496 478 2 0.527 -1.424494532593659 -4.498601537318416 -7.368221789263876 0 0 0
787 242 1 -1.054 -2.7665632439624908 -6.559864329786039 -1.9121732076142015 0 0 1
1497 478 2 0.527 -2.9027900871721144 -4.798646409203534 -7.239673562572253 0 0 0
1058 332 2 0.527 -3.289352631711914 -6.321637581686886 -4.724206006671545 0 1 1
1057 332 1 -1.054 -4.238667162601651 -6.442964158606548 -4.706356455825689 0 1 1
789 242 2 0.527 -2.5262350615740097 -6.722804836284477 -2.824272835639455 0 0 1
339 92 2 0.527 -8.265170206059297 -3.9132499630385293 -4.070144129879747 0 0 0
337 92 1 -1.054 -8.02818839531491 -3.6659490011478546 -3.1763241208854875 0 0 0
255 64 2 0.527 -1.6169545035211215 -5.669407668234683 -5.335259850627478 0 0 0
278 72 2 0.527 -10.346653026373266 -2.57690032123622 -5.59318363149558 0 0 0
441 126 2 0.527 -4.594028966816698 -6.70960593551178 -1.2956215908186763 0 1 0
253 64 1 -1.054 -1.5449414772094556 -6.2367042403787005 -4.567652729579734 0 0 0