ITEM: TIMESTEP
0
ITEM: NUMBER OF ATOMS
1386
ITEM: BOX BOUNDS pp pp pp
-4.0000000000000000e+01 4.0000000000000000e+01
-1.5000000000000000e+01 1.5000000000000000e+01
-1.5000000000000000e+01 1.5000000000000000e+01
ITEM: ATOMS id type xs ys zs
485 2 0.0285515 0.24201 0.15708
422 2 0.0413677 0.187032 0.232478
301 1 0.0854061 0.0481096 0.0670493
302 2 0.0903103 0.0545551 0.0954299
303 2 0.082044 0.0765602 0.0557258
316 1 0.108931 0.206301 0.122972
317 2 0.0992717 0.224064 0.129226
318 2 0.116523 0.226347 0.10861
327 2 0.0206906 0.225113 0.0134091
336 2 0.123328 0.112541 0.0700014
13 1 0.180653 0.219697 0.237315
14 2 0.192481 0.214993 0.238342
53 2 0.242987 0.230339 0.174896
127 1 0.22966 0.233943 0.0770773
129 2 0.229975 0.206068 0.061574
334 1 0.133068 0.0948583 0.0755358
335 2 0.131316 0.0826733 0.104652
22 1 0.0301675 0.435435 0.0987373
23 2 0.0338161 0.435739 0.129123
24 2 0.0396234 0.445796 0.0821589
486 2 0.0153545 0.277712 0.162859
484 1 0.0196848 0.251237 0.176414
103 1 0.0148401 0.439004 0.237043
105 2 0.0181558 0.410365 0.24798
134 2 0.00300311 0.405102 0.0506424
135 2 0.00732382 0.393444 0.0983697
232 1 0.0631421 0.494407 0.0317575
234 2 0.0655355 0.483939 0.00230017
247 1 0.0332298 0.357275 0.0295325
248 2 0.0447078 0.366233 0.0285603
249 2 0.0270845 0.384607 0.0279691
286 1 0.0467017 0.373848 0.167435
287 2 0.0538181 0.348407 0.164175
288 2 0.038951 0.365537 0.190277
839 2 0.244942 0.393735 0.00229387
15 2 0.179356 0.251317 0.239811
501 2 0.196503 0.342773 0.0146942
54 2 0.243917 0.278311 0.159433
471 2 0.141401 0.315342 0.227648
470 2 0.127446 0.314993 0.193568
469 1 0.129615 0.31074 0.224656
462 2 0.135181 0.268342 0.0466284
461 2 0.136298 0.317208 0.0588666
460 1 0.130013 0.290702 0.0647434
128 2 0.229941 0.25596 0.0539961
169 1 0.155445 0.289299 0.114868
170 2 0.166066 0.303885 0.113106
171 2 0.147633 0.312889 0.120115
211 1 0.221875 0.46481 0.0966504
212 2 0.231038 0.450343 0.111204
213 2 0.226174 0.493385 0.0882753
295 1 0.161069 0.411634 0.164603
296 2 0.173026 0.412559 0.163807
297 2 0.15774 0.442274 0.165187
1742 2 0.00489844 0.583307 0.11474
91 1 0.0641535 0.676484 0.160965
92 2 0.0725578 0.659698 0.145669
93 2 0.0699313 0.702105 0.172109
226 1 0.104522 0.520098 0.143115
227 2 0.115929 0.517897 0.133736
228 2 0.101831 0.551011 0.139807
233 2 0.0632964 0.526209 0.0292105
383 2 0.00338901 0.669123 0.222041
382 1 0.00577094 0.648728 0.245742
283 1 0.0190466 0.709473 0.122304
284 2 0.0303505 0.705337 0.131911
285 2 0.0183816 0.740387 0.11461
366 2 0.0130867 0.656017 0.0352261
365 2 0.0204471 0.6132 0.0171153
364 1 0.0104898 0.630889 0.0168232
142 1 0.226877 0.666366 0.0154038
143 2 0.236747 0.655274 0.0296263
144 2 0.219246 0.671819 0.0393669
381 2 0.212098 0.593724 0.196956
380 2 0.222561 0.591548 0.154964
379 1 0.223386 0.590806 0.186786
154 1 0.0562454 0.897389 0.150168
155 2 0.0678382 0.891545 0.155479
156 2 0.0560031 0.927104 0.138565
408 2 0.0261398 0.99523 0.225587
407 2 0.0440005 0.979066 0.229684
406 1 0.0326706 0.970055 0.234583
238 1 0.0790702 0.779598 0.21498
239 2 0.0823811 0.776256 0.184502
240 2 0.0892978 0.777854 0.231447
372 2 0.108662 0.81483 0.0359303
371 2 0.0962065 0.818596 0.0737352
370 1 0.096938 0.816991 0.0419286
57 2 0.126577 0.759095 0.224868
66 2 0.214381 0.851909 0.0186344
465 2 0.176708 0.946432 0.132648
464 2 0.193099 0.943721 0.157725
463 1 0.183344 0.926735 0.15045
386 2 0.178251 0.987498 0.247834
242 2 0.150789 0.92417 0.227985
157 1 0.0798727 0.142511 0.485849
158 2 0.0892938 0.154602 0.470335
159 2 0.0720105 0.166531 0.487071
423 2 0.0331511 0.157692 0.2672
421 1 0.0438547 0.166536 0.256015
417 2 0.00212873 0.170221 0.489019
416 2 0.0155103 0.204204 0.499897
415 1 0.011846 0.184357 0.476905
357 2 0.107765 0.0428877 0.419318
356 2 0.124884 0.023838 0.409336
355 1 0.11364 0.0152794 0.416103
831 2 0.245155 0.125809 0.317773
829 1 0.24772 0.0978904 0.331622
37 1 0.178128 0.0112121 0.413125
38 2 0.186375 0.027557 0.429473
39 2 0.171706 0.0335968 0.39817
106 1 0.136896 0.0379023 0.473165
107 2 0.147174 0.0227382 0.467092
108 2 0.140226 0.0672488 0.481994
347 2 0.171529 0.220033 0.310854
346 1 0.159854 0.226557 0.308364
2024 2 0.00568114 0.379901 0.339643
489 2 0.11807 0.279203 0.319359
488 2 0.115888 0.318492 0.350487
487 1 0.120054 0.288603 0.349386
104 2 0.00831436 0.451561 0.260655
393 2 0.081265 0.369667 0.406704
392 2 0.0962083 0.352248 0.381108
391 1 0.093193 0.371629 0.405145
369 2 0.107277 0.496955 0.3049
368 2 0.0918439 0.467821 0.302893
367 1 0.0974495 0.489138 0.321336
1030 1 0.247442 0.487279 0.422734
31 1 0.227581 0.267955 0.373858
32 2 0.237111 0.254284 0.360248
33 2 0.229354 0.299271 0.369987
348 2 0.159347 0.258351 0.306062
492 2 0.084037 0.605099 0.275892
491 2 0.0814841 0.654775 0.270194
490 1 0.0834161 0.627957 0.253693
480 2 0.0399534 0.635347 0.352475
479 2 0.0260151 0.63729 0.318398
55 1 0.123159 0.749941 0.254042
478 1 0.0357109 0.653048 0.32846
117 2 0.108372 0.640578 0.48448
384 2 0.0175536 0.65155 0.25052
265 1 0.0198993 0.653559 0.451937
266 2 0.0318627 0.654053 0.452072
267 2 0.0167209 0.684319 0.451746
378 2 0.0809801 0.580344 0.360905
377 2 0.0809074 0.538865 0.389647
376 1 0.0738289 0.562301 0.379039
1032 2 0.2442 0.517458 0.42844
56 2 0.125776 0.718829 0.25521
413 2 0.22644 0.722483 0.302463
412 1 0.216669 0.732615 0.287089
399 2 0.160702 0.743664 0.306601
398 2 0.162754 0.698197 0.285402
397 1 0.155223 0.715508 0.303152
244 1 0.19298 0.534787 0.388828
245 2 0.204945 0.534831 0.388791
246 2 0.189964 0.565664 0.388851
277 1 0.240621 0.617414 0.348626
278 2 0.24477 0.646893 0.343475
279 2 0.229066 0.618899 0.340482
459 2 0.0749662 0.762564 0.352351
458 2 0.0719961 0.754119 0.401468
457 1 0.0805782 0.761543 0.380512
351 2 0.0935901 0.831569 0.449342
350 2 0.0976264 0.830712 0.400047
349 1 0.0932766 0.812657 0.423658
79 1 0.209277 0.940527 0.454567
80 2 0.201392 0.918281 0.463567
81 2 0.214059 0.950998 0.481876
441 2 0.243182 0.95868 0.459493
439 1 0.240933 0.930495 0.445793
163 1 0.23107 0.77383 0.441865
164 2 0.239239 0.795968 0.449169
165 2 0.220793 0.790014 0.439604
414 2 0.219961 0.760281 0.27384
202 1 0.187985 0.795285 0.394705
203 2 0.186176 0.768255 0.410957
204 2 0.193423 0.814649 0.415509
387 2 0.172206 0.971192 0.292787
241 1 0.143345 0.924991 0.25295
243 2 0.144778 0.954181 0.265254
385 1 0.174677 0.961213 0.263206
5 2 0.0528633 0.228937 0.692885
477 2 0.0602024 0.0863458 0.655421
476 2 0.0700762 0.0712519 0.615104
475 1 0.0712586 0.0859861 0.643229
124 1 0.00269404 0.168562 0.606252
125 2 0.0125939 0.15158 0.600534
126 2 0.0058058 0.198679 0.599758
181 1 0.0806612 0.176451 0.736584
183 2 0.0720055 0.195482 0.72549
354 2 0.0435057 0.239818 0.588016
474 2 0.144694 0.0473776 0.564568
473 2 0.159615 0.0163788 0.562972
472 1 0.14765 0.0164903 0.563196
100 1 0.194974 0.103781 0.669576
101 2 0.197563 0.117567 0.69751
102 2 0.184385 0.116132 0.661323
151 1 0.224206 0.112853 0.634795
152 2 0.229565 0.0850478 0.62841
153 2 0.232749 0.134753 0.630377
187 1 0.218764 0.161536 0.548158
188 2 0.229845 0.14982 0.545393
189 2 0.219714 0.191925 0.538771
1956 2 0.000219535 0.411484 0.746658
4 1 0.0515619 0.260236 0.698019
6 2 0.0437723 0.269741 0.675743
359 2 0.107739 0.497563 0.684876
353 2 0.0280502 0.261041 0.607954
352 1 0.0350524 0.261607 0.582088
773 2 0.247188 0.438551 0.734136
447 2 0.193441 0.322147 0.694175
446 2 0.185148 0.284205 0.669314
445 1 0.195868 0.296608 0.676177
429 2 0.151887 0.351247 0.567985
428 2 0.165436 0.316058 0.566259
427 1 0.153611 0.319708 0.569471
199 1 0.234823 0.456646 0.513369
200 2 0.246444 0.464177 0.514319
201 2 0.229235 0.484577 0.509384
271 1 0.188384 0.468993 0.632634
272 2 0.190665 0.463251 0.601844
273 2 0.196686 0.452291 0.648412
115 1 0.109886 0.636853 0.515911
116 2 0.121358 0.644359 0.520992
196 1 0.0031982 0.729134 0.717466
198 2 0.00655034 0.706436 0.738032
360 2 0.0923228 0.525409 0.675866
358 1 0.101512 0.522398 0.696079
456 2 0.194145 0.712358 0.633435
455 2 0.194198 0.669338 0.659814
454 1 0.187255 0.694162 0.652129
396 2 0.154088 0.674357 0.580575
395 2 0.169252 0.644171 0.580842
394 1 0.15729 0.643616 0.580385
268 1 0.23947 0.747495 0.614153
270 2 0.241599 0.725246 0.591999
328 1 0.220795 0.576964 0.546846
329 2 0.230925 0.587689 0.560011
330 2 0.212394 0.597391 0.556788
70 1 0.0248961 0.853232 0.527527
71 2 0.0331937 0.831075 0.521403
72 2 0.0268488 0.875969 0.505756
390 2 0.0229195 0.834022 0.749749
340 1 0.0728115 0.757309 0.669955
341 2 0.0843741 0.76475 0.666499
342 2 0.0696421 0.770857 0.697578
912 2 0.247694 0.961978 0.622636
269 2 0.243763 0.774465 0.601522
375 2 0.165106 0.903157 0.542793
374 2 0.176878 0.928224 0.573333
373 1 0.172966 0.927209 0.543197
19 1 0.0114524 0.0610514 0.902037
20 2 0.00956336 0.064051 0.933401
21 2 0.0229054 0.0521292 0.899658
453 2 0.0235548 0.117214 0.765393
452 2 0.0201961 0.0675763 0.763841
451 1 0.016598 0.0945165 0.77799
450 2 0.0370796 0.16182 0.842349
449 2 0.0544198 0.156343 0.861801
448 1 0.0429366 0.149117 0.867103
182 2 0.0788764 0.175651 0.768123
262 1 0.122166 0.247767 0.924782
312 2 0.0593114 0.0258071 0.967564
325 1 0.0267594 0.219052 0.986588
326 2 0.0363056 0.238228 0.988098
139 1 0.241672 0.248449 0.777086
141 2 0.249971 0.225478 0.77641
435 2 0.0307424 0.291072 0.894134
434 2 0.0446613 0.313339 0.920078
433 1 0.0349609 0.295021 0.92373
172 1 0.107968 0.427702 0.935936
173 2 0.11985 0.428317 0.932245
174 2 0.104622 0.458244 0.933574
410 2 0.0140824 0.310721 0.815713
409 1 0.00559812 0.301154 0.79535
193 1 0.0555168 0.2844 0.778295
194 2 0.0578315 0.31302 0.765611
195 2 0.0657366 0.275927 0.79256
205 1 0.112713 0.398517 0.861076
206 2 0.100991 0.403771 0.864727
207 2 0.11391 0.390224 0.830432
264 2 0.115469 0.259241 0.900961
274 1 0.0509037 0.423992 0.86367
275 2 0.0627653 0.42085 0.860906
276 2 0.0490192 0.455486 0.862702
322 1 0.0887863 0.327143 0.920252
323 2 0.099723 0.317536 0.911583
324 2 0.0885779 0.358282 0.913319
34 1 0.178006 0.337366 0.888446
35 2 0.187553 0.318423 0.885108
36 2 0.180881 0.363944 0.872544
40 1 0.197411 0.43325 0.847002
41 2 0.206137 0.417854 0.831526
42 2 0.200383 0.430835 0.877814
468 2 0.187632 0.387155 0.75346
467 2 0.200689 0.350764 0.756617
466 1 0.189004 0.355511 0.751653
500 2 0.197257 0.306249 0.979931
140 2 0.239703 0.253588 0.808136
499 1 0.189627 0.32575 0.994892
401 2 0.233374 0.491071 0.997107
256 1 0.244681 0.341287 0.775375
258 2 0.238102 0.350052 0.750208
263 2 0.130829 0.26944 0.928618
444 2 0.0764338 0.52847 0.858118
443 2 0.0801739 0.575932 0.872063
442 1 0.074466 0.549528 0.881508
253 1 0.0808277 0.631942 0.808413
254 2 0.0832233 0.661507 0.798257
255 2 0.07043 0.634643 0.823968
873 2 0.243152 0.734027 0.826307
426 2 0.166031 0.735245 0.824542
425 2 0.180152 0.702519 0.832127
424 1 0.169087 0.704706 0.820185
402 2 0.228433 0.526985 0.964197
400 1 0.224069 0.502022 0.980304
250 1 0.14514 0.608542 0.95283
251 2 0.150181 0.579645 0.95434
252 2 0.146923 0.618014 0.922735
493 1 0.035154 0.968363 0.819218
483 2 0.0955773 0.960521 0.892428
482 2 0.0976405 0.970315 0.941625
481 1 0.102189 0.9774 0.912977
82 1 0.014851 0.801475 0.866691
83 2 0.0267985 0.8007 0.868234
84 2 0.012223 0.832144 0.861369
494 2 0.0453585 0.974925 0.834531
166 1 0.0692888 0.928909 0.807138
167 2 0.0714278 0.947785 0.832222
168 2 0.0611505 0.908005 0.817628
495 2 0.029438 0.996349 0.817644
389 2 0.0114949 0.799949 0.771137
388 1 0.0182102 0.825499 0.777814
310 1 0.059737 0.995519 0.977534
311 2 0.0714087 0.98938 0.98094
664 1 0.248987 0.983948 0.837299
64 1 0.20974 0.83021 0.998784
65 2 0.217903 0.827193 0.975652
88 1 0.172228 0.944464 0.93393
89 2 0.183123 0.949248 0.921642
90 2 0.168352 0.973653 0.941625
405 2 0.174364 0.837709 0.77294
404 2 0.191609 0.817315 0.76895
403 1 0.181089 0.819439 0.753897
1041 2 0.279865 0.10378 0.0175832
1020 2 0.358804 0.156807 0.207895
1019 2 0.360216 0.106631 0.21173
1018 1 0.352343 0.130008 0.206189
1040 2 0.262013 0.0877014 0.0222632
625 1 0.343201 0.143957 0.0407317
626 2 0.355166 0.144086 0.0409833
627 2 0.340156 0.174808 0.0401523
1039 1 0.269231 0.104291 0.002966
894 2 0.262824 0.1921 0.00160672
893 2 0.269477 0.222085 0.0381128
892 1 0.267401 0.19146 0.0310801
870 2 0.294957 0.165781 0.241706
869 2 0.311063 0.139352 0.243552
868 1 0.299165 0.135977 0.243652
529 1 0.479987 0.219376 0.184745
530 2 0.482678 0.193546 0.167444
531 2 0.468563 0.225593 0.177579
986 2 0.472848 0.00961865 0.139639
669 2 0.466794 0.0288593 0.0120068
52 1 0.250156 0.255884 0.174869
948 2 0.275399 0.362214 0.111132
947 2 0.289938 0.33257 0.123961
946 1 0.27973 0.344805 0.135248
858 2 0.339344 0.426714 0.192099
857 2 0.338799 0.445871 0.145437
856 1 0.342581 0.452249 0.175027
808 1 0.289769 0.480287 0.167067
809 2 0.291387 0.468294 0.137816
810 2 0.294813 0.458896 0.186547
972 2 0.378879 0.466068 0.0285462
971 2 0.387533 0.489845 0.0666071
970 1 0.378017 0.471716 0.0598648
775 1 0.454229 0.498964 0.128348
776 2 0.449498 0.474746 0.111846
797 2 0.395655 0.334257 0.243877
550 1 0.2757 0.576228 0.0274288
551 2 0.276289 0.544914 0.033342
1027 1 0.313319 0.644988 0.216558
1028 2 0.32389 0.632325 0.224494
586 1 0.293349 0.563199 0.217597
587 2 0.301385 0.539704 0.220194
588 2 0.297317 0.585899 0.237365
939 2 0.264729 0.632669 0.166409
938 2 0.270894 0.62886 0.118851
937 1 0.27433 0.624675 0.149126
1029 2 0.315724 0.675663 0.21056
724 1 0.369145 0.540342 0.235304
726 2 0.366023 0.566389 0.218863
736 1 0.324333 0.545888 0.038953
737 2 0.3298 0.542026 0.0670706
738 2 0.329485 0.57176 0.026306
1262 2 0.499792 0.74 0.247569
999 2 0.39249 0.609165 0.116025
998 2 0.407816 0.602791 0.144931
997 1 0.397695 0.588389 0.135867
980 2 0.46027 0.741807 0.120876
979 1 0.449971 0.739155 0.136896
957 2 0.396908 0.718323 0.165533
956 2 0.411532 0.686369 0.167674
955 1 0.399574 0.687325 0.168104
694 1 0.489325 0.505379 0.076037
695 2 0.49503 0.504199 0.104059
696 2 0.496012 0.524797 0.0580649
725 2 0.380537 0.545481 0.243588
777 2 0.447583 0.500698 0.154823
523 1 0.326623 0.967096 0.0953335
524 2 0.338335 0.96356 0.0898445
525 2 0.324982 0.998677 0.0965906
565 1 0.271571 0.776482 0.238472
566 2 0.275331 0.806628 0.241424
921 2 0.297147 0.956374 0.129437
920 2 0.294252 0.955433 0.0795771
919 1 0.29858 0.973794 0.10298
918 2 0.346684 0.811695 0.070244
917 2 0.341536 0.776105 0.0372081
916 1 0.34881 0.781403 0.0619808
861 2 0.29499 0.914601 0.24091
860 2 0.304764 0.876911 0.219774
859 1 0.295746 0.882774 0.239908
1026 2 0.392695 0.957066 0.223468
1025 2 0.404351 0.919325 0.210982
1024 1 0.392983 0.925517 0.218769
987 2 0.470883 0.959576 0.135787
985 1 0.477995 0.983706 0.127066
981 2 0.448791 0.767055 0.152053
667 1 0.469882 0.99805 0.0130026
668 2 0.481842 0.998262 0.0121394
885 2 0.473894 0.805719 0.040884
883 1 0.464999 0.810857 0.020171
876 2 0.326127 0.0994062 0.321157
875 2 0.312753 0.0899125 0.355574
874 1 0.314311 0.0956222 0.324458
830 2 0.257367 0.0873006 0.315997
520 1 0.492391 0.226176 0.349634
1017 2 0.432544 0.112433 0.358333
1016 2 0.43085 0.0646895 0.37404
1015 1 0.437507 0.0835487 0.355406
1014 2 0.420162 0.0501941 0.47167
1013 2 0.438458 0.0401139 0.479698
1012 1 0.428173 0.0265146 0.470706
559 1 0.388691 0.107595 0.392875
560 2 0.397381 0.127281 0.383204
561 2 0.381141 0.126295 0.409091
595 1 0.398583 0.0349722 0.347765
596 2 0.395295 0.00747179 0.334166
597 2 0.388492 0.0520425 0.349359
598 1 0.466784 0.162615 0.274504
599 2 0.465918 0.155387 0.305495
600 2 0.476025 0.145248 0.264054
781 1 0.481705 0.0359919 0.381243
782 2 0.490289 0.0197436 0.366077
783 2 0.487584 0.0582143 0.397929
801 2 0.492044 0.167042 0.493116
1008 2 0.319047 0.473087 0.332454
1007 2 0.31986 0.469113 0.282194
1006 1 0.313637 0.459236 0.307593
897 2 0.323632 0.278767 0.300376
896 2 0.325201 0.320301 0.328731
895 1 0.330991 0.303111 0.306728
1031 2 0.259384 0.487575 0.424689
787 1 0.279071 0.300755 0.292267
788 2 0.286642 0.307771 0.268577
789 2 0.269888 0.320781 0.288103
1413 2 0.491165 0.429181 0.31122
522 2 0.486264 0.250503 0.362254
975 2 0.461772 0.337994 0.427771
974 2 0.47741 0.309685 0.430269
616 1 0.440377 0.480085 0.346431
618 2 0.436523 0.465601 0.372938
973 1 0.465469 0.307715 0.429787
951 2 0.409533 0.273958 0.346223
950 2 0.396664 0.282696 0.31027
949 1 0.404778 0.297333 0.328591
796 1 0.387268 0.332704 0.26658
798 2 0.392004 0.348378 0.291336
821 2 0.321714 0.59856 0.484278
1002 2 0.38694 0.660244 0.38265
1001 2 0.404708 0.643789 0.377092
1000 1 0.393331 0.635763 0.371325
617 2 0.437103 0.510557 0.350068
906 2 0.420797 0.706403 0.498222
905 2 0.43052 0.665096 0.485263
904 1 0.420062 0.679877 0.480599
757 1 0.462562 0.671925 0.474385
758 2 0.45892 0.702293 0.473176
759 2 0.455922 0.656983 0.452449
440 2 0.251639 0.920092 0.436062
1011 2 0.313052 0.79952 0.445354
1010 2 0.330657 0.792892 0.462636
1009 1 0.322815 0.781501 0.441401
567 2 0.261116 0.775772 0.253969
613 1 0.286841 0.804349 0.329855
614 2 0.297 0.81663 0.318309
615 2 0.281658 0.828596 0.345317
634 1 0.488493 0.874266 0.343879
636 2 0.485303 0.904894 0.34113
942 2 0.462004 0.87044 0.450316
941 2 0.471695 0.855043 0.490834
940 1 0.472298 0.874945 0.465947
748 1 0.459822 0.789322 0.334666
749 2 0.456677 0.814523 0.316986
750 2 0.454142 0.76469 0.32118
835 1 0.384939 0.841401 0.39419
836 2 0.394066 0.830518 0.376661
837 2 0.375307 0.837103 0.375755
984 2 0.339032 0.0990507 0.527891
983 2 0.338236 0.0742312 0.571778
982 1 0.33197 0.0940265 0.553152
924 2 0.338476 0.110974 0.663367
923 2 0.345521 0.151081 0.687556
922 1 0.336852 0.129153 0.689229
715 1 0.30992 0.0718441 0.749857
882 2 0.314478 0.221807 0.639582
881 2 0.331276 0.198594 0.640701
880 1 0.319595 0.193566 0.645442
766 1 0.349701 0.012507 0.739745
768 2 0.355275 0.0244899 0.714181
823 1 0.369514 0.0840473 0.526358
824 2 0.361879 0.0829898 0.550903
825 2 0.372985 0.114549 0.524951
709 1 0.416995 0.167585 0.587921
710 2 0.420172 0.172409 0.618301
711 2 0.412522 0.195604 0.578396
799 1 0.48638 0.141639 0.505144
800 2 0.485458 0.147828 0.536348
1035 2 0.453476 0.0441968 0.749348
1033 1 0.465371 0.0471561 0.747606
909 2 0.277416 0.329667 0.564266
908 2 0.290126 0.292323 0.566063
907 1 0.278411 0.297907 0.562761
772 1 0.252678 0.414027 0.719913
774 2 0.262928 0.410598 0.736012
1005 2 0.487491 0.29309 0.518445
1003 1 0.489202 0.261837 0.51392
963 2 0.382493 0.313725 0.712598
962 2 0.381604 0.278678 0.676368
961 1 0.37566 0.303597 0.688444
673 1 0.423424 0.295036 0.662945
674 2 0.4276 0.285213 0.691186
675 2 0.421178 0.326102 0.667075
544 1 0.367871 0.598663 0.687744
546 2 0.362438 0.607706 0.714695
611 2 0.353363 0.683876 0.749243
637 1 0.295804 0.689114 0.717033
638 2 0.303264 0.671003 0.734188
639 2 0.302644 0.701295 0.693862
927 2 0.341428 0.654197 0.627503
926 2 0.349014 0.665394 0.672358
925 1 0.339782 0.650241 0.658858
697 1 0.252376 0.606539 0.607173
698 2 0.264148 0.601214 0.60921
699 2 0.251124 0.637481 0.614206
1037 2 0.285757 0.740971 0.545689
1036 1 0.273967 0.744717 0.549632
803 2 0.373049 0.532391 0.649497
820 1 0.323171 0.622979 0.504444
822 2 0.32732 0.609574 0.531201
545 2 0.379158 0.608714 0.691082
802 1 0.377916 0.510256 0.668461
804 2 0.38919 0.520036 0.672761
960 2 0.301625 0.900405 0.575237
959 2 0.310434 0.889895 0.618645
958 1 0.31218 0.891189 0.587107
945 2 0.264974 0.750922 0.653873
944 2 0.267571 0.767348 0.701083
1038 2 0.272385 0.776326 0.550699
943 1 0.272613 0.767327 0.672147
911 2 0.262902 0.932384 0.627746
910 1 0.25122 0.931538 0.620896
767 2 0.355119 0.984554 0.745027
818 2 0.283974 0.814371 0.740606
819 2 0.26915 0.845648 0.742963
517 1 0.393727 0.901418 0.608393
518 2 0.3983 0.881307 0.629954
519 2 0.395673 0.887163 0.580324
556 1 0.443816 0.949774 0.68476
557 2 0.455777 0.949022 0.684359
558 2 0.441091 0.980841 0.684831
646 1 0.409492 0.772931 0.650529
647 2 0.419264 0.782921 0.665993
648 2 0.400514 0.789361 0.663755
933 2 0.456117 0.961286 0.592389
932 2 0.465842 0.924252 0.569973
931 1 0.455135 0.931072 0.582475
532 1 0.338582 0.186619 0.85268
533 2 0.350364 0.182242 0.849238
534 2 0.33709 0.218191 0.850359
562 1 0.3152 0.167324 0.985471
563 2 0.326625 0.158525 0.981949
564 2 0.315664 0.198931 0.989659
978 2 0.374191 0.19669 0.834629
712 1 0.366363 0.00577387 0.870319
714 2 0.362656 0.0310343 0.853521
716 2 0.315383 0.047707 0.764798
717 2 0.307892 0.0933539 0.772794
769 1 0.274703 0.148091 0.902015
770 2 0.271757 0.141015 0.932118
771 2 0.264656 0.143197 0.885393
849 2 0.360148 0.176865 0.963074
847 1 0.36744 0.152377 0.956729
1023 2 0.452114 0.151785 0.760784
1022 2 0.460413 0.132499 0.801831
1021 1 0.451215 0.128007 0.781923
977 2 0.389285 0.166265 0.833737
976 1 0.37733 0.165903 0.834958
628 1 0.396731 0.0382127 0.868953
629 2 0.393208 0.0105022 0.881677
630 2 0.404746 0.0299779 0.84674
855 2 0.430541 0.0394793 0.915874
1034 2 0.469509 0.0174852 0.751599
854 2 0.439827 0.0739477 0.943172
853 1 0.44106 0.0545252 0.918072
848 2 0.378231 0.162333 0.96626
257 2 0.253223 0.363537 0.777386
903 2 0.293388 0.489252 0.769169
902 2 0.300228 0.442863 0.777039
901 1 0.290741 0.461372 0.782986
864 2 0.366291 0.432511 0.827237
862 1 0.372319 0.405136 0.824029
826 1 0.280461 0.316868 0.851612
827 2 0.280399 0.325201 0.820813
828 2 0.285096 0.342137 0.86667
838 1 0.255994 0.383217 0.996073
840 2 0.257746 0.390239 0.965301
1251 2 0.493716 0.477954 0.821365
996 2 0.490631 0.348315 0.870674
994 1 0.499602 0.327444 0.873844
643 1 0.476655 0.450503 0.926891
644 2 0.468734 0.472905 0.918519
645 2 0.479278 0.457076 0.95732
863 2 0.383675 0.414122 0.81953
552 2 0.278303 0.578867 0.996398
610 1 0.354318 0.662169 0.772488
612 2 0.347712 0.63755 0.762409
966 2 0.340526 0.603885 0.886242
965 2 0.352789 0.568659 0.870874
964 1 0.34118 0.576349 0.870217
872 2 0.253293 0.731025 0.868808
871 1 0.254086 0.727043 0.837221
867 2 0.298011 0.645102 0.978458
866 2 0.287584 0.656835 0.938014
865 1 0.287014 0.642068 0.966256
993 2 0.426091 0.545817 0.961296
992 2 0.434771 0.501195 0.965722
991 1 0.424588 0.514653 0.955745
990 2 0.434377 0.739555 0.990917
989 2 0.452333 0.723828 0.988354
988 1 0.441081 0.71428 0.983195
721 1 0.45766 0.614975 0.753589
722 2 0.449822 0.638333 0.759554
723 2 0.454917 0.59213 0.774628
814 1 0.41618 0.66658 0.88093
815 2 0.427973 0.66406 0.876174
816 2 0.413837 0.697601 0.876847
505 1 0.345901 0.85371 0.807247
506 2 0.335826 0.848437 0.823632
507 2 0.354066 0.860504 0.829558
655 1 0.323982 0.852298 0.974948
656 2 0.334543 0.847385 0.98912
657 2 0.319257 0.877099 0.990573
665 2 0.252701 0.953682 0.835321
666 2 0.253351 0.997903 0.811072
915 2 0.285301 0.781801 0.903912
914 2 0.276139 0.770788 0.946671
703 1 0.372141 0.770438 0.916297
705 2 0.360627 0.77087 0.907634
913 1 0.278707 0.79499 0.927041
713 2 0.359278 0.98191 0.860749
888 2 0.327697 0.963545 0.961768
887 2 0.341928 0.981452 0.933737
886 1 0.336022 0.986451 0.961032
817 1 0.273107 0.817476 0.753592
601 1 0.378701 0.970585 0.958947
602 2 0.377639 0.975219 0.990388
603 2 0.383714 0.941736 0.956286
704 2 0.378157 0.77521 0.889132
884 2 0.470487 0.820269 0.993426
811 1 0.457673 0.958264 0.938333
812 2 0.467202 0.961736 0.919352
813 2 0.448296 0.963964 0.919349
1488 2 0.588963 0.0773717 0.00466311
1487 2 0.602272 0.0418211 0.00946882
1486 1 0.590532 0.0457406 0.00472383
1443 2 0.56594 0.175774 0.203142
1442 2 0.573902 0.138574 0.229824
1255 1 0.621691 0.111699 0.0884726
1257 2 0.615199 0.0887059 0.0747033
1441 1 0.565904 0.144071 0.206739
1497 2 0.657652 0.217812 0.152695
1496 2 0.660372 0.174022 0.128687
1495 1 0.661009 0.20562 0.124602
1171 1 0.706358 0.16162 0.140706
1172 2 0.699317 0.17563 0.119044
1173 2 0.707048 0.182738 0.164553
1256 2 0.627531 0.125543 0.0643097
1557 2 0.673734 0.0970071 0.202687
1556 2 0.679557 0.0533318 0.182739
1555 1 0.670164 0.0671059 0.196914
1153 1 0.580547 0.428091 0.214109
1154 2 0.578245 0.397462 0.207609
1155 2 0.578416 0.430927 0.245377
1240 1 0.531324 0.486936 0.110951
1242 2 0.525978 0.486308 0.139489
1431 2 0.610962 0.443418 0.0765961
1429 1 0.620726 0.425556 0.0811916
1719 2 0.74429 0.35014 0.239416
1717 1 0.747963 0.320837 0.231452
1524 2 0.703357 0.396851 0.113319
1523 2 0.706713 0.388495 0.0643632
1522 1 0.698409 0.399712 0.0844098
1439 2 0.696254 0.462021 0.133277
1438 1 0.695745 0.49389 0.13257
1308 2 0.66737 0.290308 0.238391
1430 2 0.62815 0.434068 0.0576609
1330 1 0.658639 0.360084 0.00945317
1331 2 0.670247 0.354072 0.0143253
1332 2 0.658209 0.391278 0.00284667
1351 1 0.743094 0.422942 0.186978
1353 2 0.738763 0.451783 0.179711
1396 1 0.644042 0.425319 0.150393
1397 2 0.650603 0.4186 0.176215
1398 2 0.649265 0.451106 0.137781
1084 1 0.552491 0.574021 0.184585
1085 2 0.559999 0.589765 0.203803
1086 2 0.543888 0.595159 0.177887
1087 1 0.599627 0.573187 0.0114122
1088 2 0.610797 0.579255 0.00171698
1139 2 0.623474 0.667969 0.228145
1168 1 0.545951 0.702508 0.152531
1169 2 0.551103 0.720126 0.129753
1170 2 0.5365 0.719716 0.161843
1461 2 0.509183 0.698691 0.0735332
1460 2 0.526354 0.679408 0.0823634
1459 1 0.514832 0.671241 0.0796622
1241 2 0.52427 0.505445 0.0930174
1261 1 0.501427 0.74669 0.216678
1297 1 0.573029 0.586964 0.130409
1298 2 0.5816 0.589086 0.108245
1299 2 0.566189 0.612692 0.125578
1309 1 0.587323 0.713368 0.0310182
1310 2 0.599149 0.71035 0.0272189
1311 2 0.585598 0.744671 0.0351431
1545 2 0.631869 0.566862 0.23905
1138 1 0.634625 0.679429 0.226558
1140 2 0.635519 0.691434 0.197092
1493 2 0.688367 0.730126 0.0136087
1165 1 0.730857 0.558599 0.213989
1166 2 0.737751 0.537694 0.229579
1167 2 0.729148 0.582335 0.234819
1440 2 0.691684 0.502078 0.161445
1345 1 0.67288 0.625717 0.163049
1346 2 0.683658 0.630269 0.176134
1347 2 0.666661 0.651822 0.17089
1393 1 0.717601 0.729102 0.10404
1394 2 0.724271 0.744154 0.0822417
1395 2 0.725035 0.72424 0.128565
1042 1 0.512864 0.803905 0.0273602
1043 2 0.524382 0.806114 0.0357121
1044 2 0.510825 0.830041 0.00988471
1048 1 0.529852 0.903883 0.243993
1049 2 0.537292 0.88803 0.224677
1050 2 0.528781 0.932709 0.230616
1263 2 0.503467 0.778122 0.215991
1350 2 0.586695 0.881626 0.243656
1470 2 0.671604 0.986323 0.208553
1468 1 0.6774 0.974209 0.2337
1464 2 0.670652 0.963208 0.0969056
1463 2 0.687145 0.938474 0.0975897
1462 1 0.681702 0.964462 0.109079
1416 2 0.643641 0.990273 0.0375645
1415 2 0.65365 0.947479 0.0392431
1414 1 0.64243 0.958549 0.0386636
521 2 0.502556 0.239336 0.339136
1518 2 0.601966 0.190562 0.334959
1517 2 0.617483 0.182175 0.362599
1516 1 0.612857 0.202263 0.341099
1216 1 0.57363 0.0527152 0.309746
1217 2 0.576887 0.0604023 0.33947
1218 2 0.583949 0.0499064 0.293844
1458 2 0.52263 0.106829 0.363675
1457 2 0.538459 0.0793293 0.360751
1456 1 0.526658 0.0768339 0.365391
1234 1 0.596933 0.0919944 0.398787
1235 2 0.608765 0.0957586 0.401657
1236 2 0.592678 0.121654 0.39569
1294 1 0.560664 0.114421 0.43085
1295 2 0.564976 0.090906 0.412605
1296 2 0.549039 0.115865 0.42344
1363 1 0.570051 0.206642 0.353606
1364 2 0.575915 0.18591 0.372146
1365 2 0.560681 0.215832 0.371191
1045 1 0.727947 0.0915215 0.320926
1046 2 0.732548 0.0681774 0.338885
1047 2 0.735393 0.116138 0.325145
1075 1 0.64786 0.00440384 0.268323
1076 2 0.656709 0.0223428 0.280131
1077 2 0.638195 0.0131082 0.284993
1533 2 0.669021 0.192125 0.346759
1532 2 0.675609 0.147562 0.330884
1531 1 0.665812 0.165877 0.330764
1404 2 0.681197 0.00782996 0.406367
1072 1 0.539689 0.364085 0.436399
1073 2 0.551578 0.367289 0.434769
1074 2 0.535443 0.393236 0.430066
1412 2 0.508063 0.448554 0.323086
1411 1 0.501831 0.436416 0.298702
1512 2 0.714047 0.356434 0.316676
1511 2 0.730391 0.332225 0.308872
1510 1 0.719365 0.328118 0.320563
1509 2 0.656559 0.401708 0.355339
1508 2 0.657559 0.356444 0.377487
1507 1 0.650487 0.374477 0.359125
1159 1 0.731565 0.469422 0.287349
1160 2 0.724879 0.471587 0.31372
1161 2 0.72398 0.459351 0.264822
1282 1 0.744813 0.288294 0.49574
1284 2 0.73646 0.265652 0.492702
1306 1 0.666741 0.266815 0.259915
1307 2 0.678135 0.258655 0.265232
1372 1 0.637171 0.469861 0.347438
1373 2 0.634232 0.499209 0.337676
1374 2 0.63985 0.454147 0.320604
1544 2 0.62462 0.546439 0.280951
1543 1 0.621935 0.553372 0.250641
1135 1 0.544346 0.538314 0.451323
1136 2 0.554428 0.546266 0.436095
1137 2 0.536177 0.535538 0.428175
1285 1 0.57338 0.586276 0.368187
1286 2 0.579434 0.607667 0.350872
1287 2 0.57782 0.558069 0.359121
1288 1 0.600565 0.733521 0.493368
1290 2 0.590487 0.749264 0.486448
1312 1 0.591614 0.630006 0.258344
1313 2 0.603233 0.630197 0.265965
1314 2 0.58613 0.61924 0.284578
1387 1 0.557416 0.671365 0.300356
1388 2 0.562734 0.645866 0.313266
1389 2 0.557307 0.693058 0.323751
1060 1 0.655128 0.73824 0.309138
1061 2 0.664426 0.72657 0.292793
1539 2 0.745176 0.545319 0.3932
1538 2 0.727888 0.524877 0.395036
1537 1 0.738432 0.525104 0.410113
1258 1 0.657159 0.524111 0.411801
1259 2 0.663657 0.542562 0.431226
1260 2 0.652565 0.544337 0.39038
1432 1 0.744336 0.737014 0.388475
635 2 0.50039 0.874439 0.340477
1338 2 0.615494 0.899162 0.483636
1348 1 0.594757 0.900272 0.258087
1349 2 0.602605 0.879895 0.270925
1062 2 0.659754 0.761996 0.326503
1469 2 0.668722 0.965077 0.253676
1207 1 0.628077 0.879101 0.342996
1208 2 0.634112 0.851553 0.342549
1209 2 0.633428 0.897061 0.320816
1381 1 0.666569 0.862232 0.397908
1382 2 0.665568 0.845744 0.425094
1383 2 0.658078 0.850137 0.378959
1402 1 0.687954 0.983404 0.4162
1403 2 0.697664 0.984564 0.397593
1548 2 0.548749 0.116877 0.672192
1547 2 0.559855 0.0765159 0.665831
1546 1 0.5484 0.0857184 0.665386
1482 2 0.505563 0.041679 0.61511
1481 2 0.52112 0.044516 0.58652
1480 1 0.511789 0.0256517 0.593076
1201 1 0.61339 0.218592 0.679036
1202 2 0.62033 0.197659 0.694442
1203 2 0.604837 0.200755 0.665632
1366 1 0.550833 0.0967884 0.747166
1526 2 0.740199 0.233397 0.622451
1525 1 0.728302 0.23543 0.619731
1252 1 0.660396 0.0829302 0.62269
1253 2 0.664123 0.058465 0.640598
1254 2 0.654134 0.0693415 0.599142
1327 1 0.675743 0.156763 0.658827
1328 2 0.686337 0.147051 0.647616
1329 2 0.674601 0.186635 0.648039
1378 1 0.706895 0.0793429 0.559654
1379 2 0.71687 0.0951727 0.551922
1380 2 0.703043 0.0935101 0.586334
1004 2 0.500775 0.259291 0.50623
1485 2 0.529186 0.26236 0.576392
1484 2 0.535781 0.308762 0.585562
1483 1 0.537094 0.278271 0.594286