ITEM: TIMESTEP
0
ITEM: NUMBER OF ATOMS
490
ITEM: BOX BOUNDS pp pp pp
-1.4199999999999999e+01 1.4199999999999999e+01
-1.4199999999999999e+01 1.4199999999999999e+01
-2.5680000000000000e+01 2.5680000000000000e+01
ITEM: ATOMS id type xs ys zs
9 1 0.05 0.05 0.027648
10 2 0.05 0.15 0.027648
11 2 0.15 0.05 0.027648
12 1 0.15 0.15 0.027648
13 2 0.05 0.05 0.0829439
14 1 0.05 0.15 0.0829439
15 1 0.15 0.05 0.0829439
16 2 0.15 0.15 0.0829439
89 1 0.25 0.05 0.027648
90 2 0.25 0.15 0.027648
91 2 0.35 0.05 0.027648
92 1 0.35 0.15 0.027648
93 2 0.25 0.05 0.0829439
94 1 0.25 0.15 0.0829439
95 1 0.35 0.05 0.0829439
96 2 0.35 0.15 0.0829439
169 1 0.45 0.05 0.027648
170 2 0.45 0.15 0.027648
173 2 0.45 0.05 0.0829439
174 1 0.45 0.15 0.0829439
171 2 0.55 0.05 0.027648
172 1 0.55 0.15 0.027648
175 1 0.55 0.05 0.0829439
176 2 0.55 0.15 0.0829439
249 1 0.65 0.05 0.027648
250 2 0.65 0.15 0.027648
251 2 0.75 0.05 0.027648
252 1 0.75 0.15 0.027648
253 2 0.65 0.05 0.0829439
254 1 0.65 0.15 0.0829439
255 1 0.75 0.05 0.0829439
256 2 0.75 0.15 0.0829439
329 1 0.85 0.05 0.027648
330 2 0.85 0.15 0.027648
331 2 0.95 0.05 0.027648
332 1 0.95 0.15 0.027648
333 2 0.85 0.05 0.0829439
334 1 0.85 0.15 0.0829439
335 1 0.95 0.05 0.0829439
336 2 0.95 0.15 0.0829439
25 1 0.05 0.25 0.027648
26 2 0.05 0.35 0.027648
27 2 0.15 0.25 0.027648
28 1 0.15 0.35 0.027648
29 2 0.05 0.25 0.0829439
30 1 0.05 0.35 0.0829439
31 1 0.15 0.25 0.0829439
32 2 0.15 0.35 0.0829439
41 1 0.05 0.45 0.027648
43 2 0.15 0.45 0.027648
45 2 0.05 0.45 0.0829439
47 1 0.15 0.45 0.0829439
105 1 0.25 0.25 0.027648
106 2 0.25 0.35 0.027648
107 2 0.35 0.25 0.027648
108 1 0.35 0.35 0.027648
109 2 0.25 0.25 0.0829439
110 1 0.25 0.35 0.0829439
111 1 0.35 0.25 0.0829439
112 2 0.35 0.35 0.0829439
121 1 0.25 0.45 0.027648
123 2 0.35 0.45 0.027648
125 2 0.25 0.45 0.0829439
127 1 0.35 0.45 0.0829439
185 1 0.45 0.25 0.027648
186 2 0.45 0.35 0.027648
189 2 0.45 0.25 0.0829439
190 1 0.45 0.35 0.0829439
201 1 0.45 0.45 0.027648
205 2 0.45 0.45 0.0829439
187 2 0.55 0.25 0.027648
188 1 0.55 0.35 0.027648
191 1 0.55 0.25 0.0829439
192 2 0.55 0.35 0.0829439
203 2 0.55 0.45 0.027648
207 1 0.55 0.45 0.0829439
265 1 0.65 0.25 0.027648
266 2 0.65 0.35 0.027648
267 2 0.75 0.25 0.027648
268 1 0.75 0.35 0.027648
269 2 0.65 0.25 0.0829439
270 1 0.65 0.35 0.0829439
271 1 0.75 0.25 0.0829439
272 2 0.75 0.35 0.0829439
281 1 0.65 0.45 0.027648
283 2 0.75 0.45 0.027648
285 2 0.65 0.45 0.0829439
287 1 0.75 0.45 0.0829439
345 1 0.85 0.25 0.027648
346 2 0.85 0.35 0.027648
347 2 0.95 0.25 0.027648
348 1 0.95 0.35 0.027648
349 2 0.85 0.25 0.0829439
350 1 0.85 0.35 0.0829439
351 1 0.95 0.25 0.0829439
352 2 0.95 0.35 0.0829439
361 1 0.85 0.45 0.027648
363 2 0.95 0.45 0.027648
365 2 0.85 0.45 0.0829439
367 1 0.95 0.45 0.0829439
448 6 0.610739 0.228416 0.192679
449 4 0.575791 0.214939 0.187125
450 4 0.606418 0.248037 0.211016
451 3 0.644694 0.187652 0.196594
452 4 0.63135 0.163577 0.211544
453 4 0.679315 0.200543 0.202756
454 4 0.649104 0.167843 0.178446
455 5 0.399669 0.44951 0.153791
456 7 0.422973 0.4246 0.154968
457 6 0.408266 0.393308 0.175245
458 4 0.373593 0.378002 0.170706
459 4 0.404818 0.412241 0.193857
460 3 0.444799 0.354446 0.177708
461 4 0.434432 0.329321 0.192851
462 4 0.479243 0.369135 0.182858
463 4 0.448365 0.335326 0.159279
446 5 0.607603 0.284394 0.1706
447 7 0.629298 0.25826 0.172704
1 1 0.05 0.05 0.917056
2 2 0.05 0.15 0.917056
3 2 0.15 0.05 0.917056
4 1 0.15 0.15 0.917056
5 2 0.05 0.05 0.972352
6 1 0.05 0.15 0.972352
7 1 0.15 0.05 0.972352
8 2 0.15 0.15 0.972352
81 1 0.25 0.05 0.917056
82 2 0.25 0.15 0.917056
83 2 0.35 0.05 0.917056
84 1 0.35 0.15 0.917056
85 2 0.25 0.05 0.972352
86 1 0.25 0.15 0.972352
87 1 0.35 0.05 0.972352
88 2 0.35 0.15 0.972352
161 1 0.45 0.05 0.917056
162 2 0.45 0.15 0.917056
165 2 0.45 0.05 0.972352
166 1 0.45 0.15 0.972352
163 2 0.55 0.05 0.917056
164 1 0.55 0.15 0.917056
167 1 0.55 0.05 0.972352
168 2 0.55 0.15 0.972352
241 1 0.65 0.05 0.917056
242 2 0.65 0.15 0.917056
243 2 0.75 0.05 0.917056
244 1 0.75 0.15 0.917056
245 2 0.65 0.05 0.972352
246 1 0.65 0.15 0.972352
247 1 0.75 0.05 0.972352
248 2 0.75 0.15 0.972352
321 1 0.85 0.05 0.917056
322 2 0.85 0.15 0.917056
323 2 0.95 0.05 0.917056
324 1 0.95 0.15 0.917056
325 2 0.85 0.05 0.972352
326 1 0.85 0.15 0.972352
327 1 0.95 0.05 0.972352
328 2 0.95 0.15 0.972352
17 1 0.05 0.25 0.917056
18 2 0.05 0.35 0.917056
19 2 0.15 0.25 0.917056
20 1 0.15 0.35 0.917056
21 2 0.05 0.25 0.972352
22 1 0.05 0.35 0.972352
23 1 0.15 0.25 0.972352
24 2 0.15 0.35 0.972352
33 1 0.05 0.45 0.917056
35 2 0.15 0.45 0.917056
37 2 0.05 0.45 0.972352
39 1 0.15 0.45 0.972352
97 1 0.25 0.25 0.917056
98 2 0.25 0.35 0.917056
99 2 0.35 0.25 0.917056
100 1 0.35 0.35 0.917056
101 2 0.25 0.25 0.972352
102 1 0.25 0.35 0.972352
103 1 0.35 0.25 0.972352
104 2 0.35 0.35 0.972352
113 1 0.25 0.45 0.917056
115 2 0.35 0.45 0.917056
117 2 0.25 0.45 0.972352
119 1 0.35 0.45 0.972352
177 1 0.45 0.25 0.917056
178 2 0.45 0.35 0.917056
181 2 0.45 0.25 0.972352
182 1 0.45 0.35 0.972352
193 1 0.45 0.45 0.917056
197 2 0.45 0.45 0.972352
179 2 0.55 0.25 0.917056
180 1 0.55 0.35 0.917056
183 1 0.55 0.25 0.972352
184 2 0.55 0.35 0.972352
195 2 0.55 0.45 0.917056
199 1 0.55 0.45 0.972352
257 1 0.65 0.25 0.917056
258 2 0.65 0.35 0.917056
259 2 0.75 0.25 0.917056
260 1 0.75 0.35 0.917056
261 2 0.65 0.25 0.972352
262 1 0.65 0.35 0.972352
263 1 0.75 0.25 0.972352
264 2 0.75 0.35 0.972352
273 1 0.65 0.45 0.917056
275 2 0.75 0.45 0.917056
277 2 0.65 0.45 0.972352
279 1 0.75 0.45 0.972352
337 1 0.85 0.25 0.917056
338 2 0.85 0.35 0.917056
339 2 0.95 0.25 0.917056
340 1 0.95 0.35 0.917056
341 2 0.85 0.25 0.972352
342 1 0.85 0.35 0.972352
343 1 0.95 0.25 0.972352
344 2 0.95 0.35 0.972352
353 1 0.85 0.45 0.917056
355 2 0.95 0.45 0.917056
357 2 0.85 0.45 0.972352
359 1 0.95 0.45 0.972352
42 2 0.05 0.55 0.027648
44 1 0.15 0.55 0.027648
46 1 0.05 0.55 0.0829439
48 2 0.15 0.55 0.0829439
57 1 0.05 0.65 0.027648
59 2 0.15 0.65 0.027648
61 2 0.05 0.65 0.0829439
63 1 0.15 0.65 0.0829439
122 2 0.25 0.55 0.027648
124 1 0.35 0.55 0.027648
126 1 0.25 0.55 0.0829439
128 2 0.35 0.55 0.0829439
137 1 0.25 0.65 0.027648
139 2 0.35 0.65 0.027648
141 2 0.25 0.65 0.0829439
143 1 0.35 0.65 0.0829439
202 2 0.45 0.55 0.027648
206 1 0.45 0.55 0.0829439
217 1 0.45 0.65 0.027648
221 2 0.45 0.65 0.0829439
204 1 0.55 0.55 0.027648
208 2 0.55 0.55 0.0829439
219 2 0.55 0.65 0.027648
223 1 0.55 0.65 0.0829439
282 2 0.65 0.55 0.027648
284 1 0.75 0.55 0.027648
286 1 0.65 0.55 0.0829439
288 2 0.75 0.55 0.0829439
297 1 0.65 0.65 0.027648
299 2 0.75 0.65 0.027648
301 2 0.65 0.65 0.0829439
303 1 0.75 0.65 0.0829439
362 2 0.85 0.55 0.027648
364 1 0.95 0.55 0.027648
366 1 0.85 0.55 0.0829439
368 2 0.95 0.55 0.0829439
377 1 0.85 0.65 0.027648
379 2 0.95 0.65 0.027648
381 2 0.85 0.65 0.0829439
383 1 0.95 0.65 0.0829439
58 2 0.05 0.75 0.027648
60 1 0.15 0.75 0.027648
62 1 0.05 0.75 0.0829439
64 2 0.15 0.75 0.0829439
73 1 0.05 0.85 0.027648
74 2 0.05 0.95 0.027648
75 2 0.15 0.85 0.027648
76 1 0.15 0.95 0.027648
77 2 0.05 0.85 0.0829439
78 1 0.05 0.95 0.0829439
79 1 0.15 0.85 0.0829439
80 2 0.15 0.95 0.0829439
138 2 0.25 0.75 0.027648
140 1 0.35 0.75 0.027648
142 1 0.25 0.75 0.0829439
144 2 0.35 0.75 0.0829439
153 1 0.25 0.85 0.027648
154 2 0.25 0.95 0.027648
155 2 0.35 0.85 0.027648
156 1 0.35 0.95 0.027648
157 2 0.25 0.85 0.0829439
158 1 0.25 0.95 0.0829439
159 1 0.35 0.85 0.0829439
160 2 0.35 0.95 0.0829439
218 2 0.45 0.75 0.027648
222 1 0.45 0.75 0.0829439
233 1 0.45 0.85 0.027648
234 2 0.45 0.95 0.027648
237 2 0.45 0.85 0.0829439
238 1 0.45 0.95 0.0829439
220 1 0.55 0.75 0.027648
224 2 0.55 0.75 0.0829439
235 2 0.55 0.85 0.027648
236 1 0.55 0.95 0.027648
239 1 0.55 0.85 0.0829439
240 2 0.55 0.95 0.0829439
298 2 0.65 0.75 0.027648
300 1 0.75 0.75 0.027648
302 1 0.65 0.75 0.0829439
304 2 0.75 0.75 0.0829439
313 1 0.65 0.85 0.027648
314 2 0.65 0.95 0.027648
315 2 0.75 0.85 0.027648
316 1 0.75 0.95 0.027648
317 2 0.65 0.85 0.0829439
318 1 0.65 0.95 0.0829439
319 1 0.75 0.85 0.0829439
320 2 0.75 0.95 0.0829439
378 2 0.85 0.75 0.027648
380 1 0.95 0.75 0.027648
382 1 0.85 0.75 0.0829439
384 2 0.95 0.75 0.0829439
393 1 0.85 0.85 0.027648
394 2 0.85 0.95 0.027648
395 2 0.95 0.85 0.027648
396 1 0.95 0.95 0.027648
397 2 0.85 0.85 0.0829439
398 1 0.85 0.95 0.0829439
399 1 0.95 0.85 0.0829439
400 2 0.95 0.95 0.0829439
475 6 0.00955988 0.597143 0.190846
476 4 0.00370462 0.563341 0.180846
477 4 0.0437658 0.594747 0.200852
478 3 0.0104186 0.637037 0.17112
479 4 0.0379911 0.63097 0.156579
480 4 0.0173797 0.670749 0.180761
473 5 0.972693 0.580883 0.221704
474 7 0.972527 0.606285 0.209061
481 4 0.976529 0.639593 0.161014
482 5 0.107931 0.814978 0.233389
483 7 0.103374 0.843393 0.223195
484 6 0.134752 0.841001 0.201426
485 4 0.126899 0.809936 0.189347
486 4 0.171505 0.837714 0.208008
487 3 0.128738 0.885648 0.185445
488 4 0.151792 0.884854 0.168344
489 4 0.137578 0.916773 0.19707
490 4 0.0922634 0.889134 0.178752
419 5 0.937733 0.832204 0.183624
420 7 0.932988 0.865136 0.187944
421 6 0.94209 0.891968 0.164896
422 4 0.917771 0.881716 0.149184
423 4 0.978122 0.885618 0.1578
424 3 0.935652 0.943788 0.171391
425 4 0.941706 0.965523 0.154085
426 4 0.960475 0.954718 0.186567
427 4 0.899822 0.950447 0.178407
410 5 0.0261733 0.709933 0.357312
411 7 0.0260583 0.742872 0.352272
412 6 0.0453183 0.745704 0.326566
413 4 0.0238142 0.725239 0.312768
414 4 0.0811767 0.730988 0.326048
415 3 0.0462161 0.797188 0.318489
416 4 0.0601869 0.80077 0.298701
417 4 0.0684624 0.817742 0.331708
418 4 0.0106279 0.81209 0.318882
440 4 0.228953 0.643672 0.455515
437 5 0.286347 0.673598 0.427649
438 7 0.297418 0.653141 0.441496
439 6 0.263797 0.655638 0.462212
441 4 0.259757 0.692142 0.469083
442 3 0.280956 0.624435 0.484307
444 4 0.3151 0.63669 0.491578
445 4 0.284953 0.58799 0.477652
428 5 0.201746 0.89743 0.394086
429 7 0.188214 0.901145 0.411319
430 6 0.145933 0.928106 0.408524
431 4 0.120702 0.909737 0.395795
432 4 0.153428 0.962497 0.399533
433 3 0.124621 0.935034 0.435401
434 4 0.0917262 0.955044 0.434036
435 4 0.148952 0.954314 0.448073
436 4 0.116929 0.900959 0.444467
443 4 0.255744 0.624902 0.500455
401 5 0.685322 0.852068 0.585532
402 7 0.707658 0.872357 0.576657
403 6 0.736742 0.842938 0.560738
404 4 0.715304 0.823955 0.546276
405 4 0.754907 0.816293 0.57264
406 3 0.772557 0.874014 0.54701
407 4 0.795152 0.852785 0.534311
408 4 0.794895 0.892224 0.561198
409 4 0.754768 0.900571 0.535057
470 4 0.0247565 0.73932 0.705803
467 4 0.937736 0.741891 0.700387
469 3 0.00857291 0.767055 0.693976
471 4 0.0291945 0.799385 0.69635
472 4 0.0102787 0.756399 0.673489
464 5 0.905854 0.815793 0.691624
465 7 0.938064 0.810731 0.685959
466 6 0.957789 0.774913 0.702251
468 4 0.956393 0.785476 0.722865
34 2 0.05 0.55 0.917056
36 1 0.15 0.55 0.917056
38 1 0.05 0.55 0.972352
40 2 0.15 0.55 0.972352
49 1 0.05 0.65 0.917056
51 2 0.15 0.65 0.917056
53 2 0.05 0.65 0.972352
55 1 0.15 0.65 0.972352
114 2 0.25 0.55 0.917056
116 1 0.35 0.55 0.917056
118 1 0.25 0.55 0.972352
120 2 0.35 0.55 0.972352
129 1 0.25 0.65 0.917056
131 2 0.35 0.65 0.917056
133 2 0.25 0.65 0.972352
135 1 0.35 0.65 0.972352
194 2 0.45 0.55 0.917056
198 1 0.45 0.55 0.972352
209 1 0.45 0.65 0.917056
213 2 0.45 0.65 0.972352
196 1 0.55 0.55 0.917056
200 2 0.55 0.55 0.972352
211 2 0.55 0.65 0.917056
215 1 0.55 0.65 0.972352
274 2 0.65 0.55 0.917056
276 1 0.75 0.55 0.917056
278 1 0.65 0.55 0.972352
280 2 0.75 0.55 0.972352
289 1 0.65 0.65 0.917056
291 2 0.75 0.65 0.917056
293 2 0.65 0.65 0.972352
295 1 0.75 0.65 0.972352
354 2 0.85 0.55 0.917056
356 1 0.95 0.55 0.917056
358 1 0.85 0.55 0.972352
360 2 0.95 0.55 0.972352
369 1 0.85 0.65 0.917056
371 2 0.95 0.65 0.917056
373 2 0.85 0.65 0.972352
375 1 0.95 0.65 0.972352
50 2 0.05 0.75 0.917056
52 1 0.15 0.75 0.917056
54 1 0.05 0.75 0.972352
56 2 0.15 0.75 0.972352
65 1 0.05 0.85 0.917056
66 2 0.05 0.95 0.917056
67 2 0.15 0.85 0.917056
68 1 0.15 0.95 0.917056
69 2 0.05 0.85 0.972352
70 1 0.05 0.95 0.972352
71 1 0.15 0.85 0.972352
72 2 0.15 0.95 0.972352
130 2 0.25 0.75 0.917056
132 1 0.35 0.75 0.917056
134 1 0.25 0.75 0.972352
136 2 0.35 0.75 0.972352
145 1 0.25 0.85 0.917056
146 2 0.25 0.95 0.917056
147 2 0.35 0.85 0.917056
148 1 0.35 0.95 0.917056
149 2 0.25 0.85 0.972352
150 1 0.25 0.95 0.972352
151 1 0.35 0.85 0.972352
152 2 0.35 0.95 0.972352
210 2 0.45 0.75 0.917056
214 1 0.45 0.75 0.972352
225 1 0.45 0.85 0.917056
226 2 0.45 0.95 0.917056
229 2 0.45 0.85 0.972352
230 1 0.45 0.95 0.972352
212 1 0.55 0.75 0.917056
216 2 0.55 0.75 0.972352
227 2 0.55 0.85 0.917056
228 1 0.55 0.95 0.917056
231 1 0.55 0.85 0.972352
232 2 0.55 0.95 0.972352
290 2 0.65 0.75 0.917056
292 1 0.75 0.75 0.917056
294 1 0.65 0.75 0.972352
296 2 0.75 0.75 0.972352
305 1 0.65 0.85 0.917056
306 2 0.65 0.95 0.917056
307 2 0.75 0.85 0.917056
308 1 0.75 0.95 0.917056
309 2 0.65 0.85 0.972352
310 1 0.65 0.95 0.972352
311 1 0.75 0.85 0.972352
312 2 0.75 0.95 0.972352
370 2 0.85 0.75 0.917056
372 1 0.95 0.75 0.917056
374 1 0.85 0.75 0.972352
376 2 0.95 0.75 0.972352
385 1 0.85 0.85 0.917056
386 2 0.85 0.95 0.917056
387 2 0.95 0.85 0.917056
388 1 0.95 0.95 0.917056
389 2 0.85 0.85 0.972352
390 1 0.85 0.95 0.972352
391 1 0.95 0.85 0.972352
392 2 0.95 0.95 0.972352
ITEM: TIMESTEP
1000
ITEM: NUMBER OF ATOMS
490
ITEM: BOX BOUNDS pp pp pp
-1.3774963964809441e+01 1.3774963964809441e+01
-1.3809919876761192e+01 1.3809919876761192e+01
-2.5680000000000000e+01 2.5680000000000000e+01
ITEM: ATOMS id type xs ys zs
9 1 0.0523637 0.0540662 0.0253995
10 2 0.0475167 0.15092 0.0318794
11 2 0.1485 0.0553326 0.0247703
12 1 0.149805 0.155467 0.0284469
13 2 0.0454688 0.04424 0.079349
14 1 0.044626 0.150515 0.0833088
15 1 0.15268 0.0483259 0.079926
16 2 0.141962 0.146974 0.0816997
89 1 0.255585 0.0540271 0.0251774
90 2 0.25452 0.15344 0.0237925
91 2 0.349737 0.0501535 0.0271792
92 1 0.352556 0.150429 0.0282889
93 2 0.249217 0.050658 0.0823012
94 1 0.252354 0.144942 0.0802813
95 1 0.350822 0.0446299 0.0784461
96 2 0.354131 0.147873 0.0820072
169 1 0.451397 0.0490138 0.0277782
170 2 0.451511 0.151936 0.0266041
173 2 0.450509 0.046919 0.0861455
174 1 0.446959 0.147918 0.0796062
171 2 0.552019 0.0522044 0.0259089
172 1 0.552225 0.149436 0.0300888
175 1 0.555196 0.0455024 0.085969
176 2 0.554819 0.15371 0.0827951
249 1 0.653593 0.056889 0.0256491
250 2 0.653314 0.153383 0.0294951
251 2 0.750722 0.0561063 0.0256678
252 1 0.753602 0.156302 0.0266191
253 2 0.649742 0.0511146 0.0800335
254 1 0.6553 0.14961 0.0803615
255 1 0.752485 0.052994 0.0780194
256 2 0.75207 0.152648 0.0803437
329 1 0.845528 0.0483894 0.0232279
330 2 0.855311 0.156245 0.0236275
331 2 0.945574 0.047391 0.0226819
332 1 0.95286 0.151103 0.0242755
333 2 0.850932 0.0542086 0.0799473
334 1 0.852326 0.159607 0.0835581
335 1 0.949138 0.0482143 0.0787458
336 2 0.949437 0.147922 0.0846286
25 1 0.050778 0.251466 0.0298045
26 2 0.0454357 0.353091 0.0233816
27 2 0.153608 0.250977 0.0271418
28 1 0.155536 0.348826 0.0287341
29 2 0.0519314 0.250301 0.0871245
30 1 0.0473599 0.351328 0.0895115
31 1 0.147977 0.249434 0.0826124
32 2 0.153259 0.347976 0.0843747
41 1 0.0468996 0.448555 0.0255281
43 2 0.152038 0.448537 0.0294469
45 2 0.054001 0.445841 0.088726
47 1 0.151596 0.442391 0.0831054
105 1 0.251433 0.247447 0.0292146
106 2 0.252358 0.348468 0.0295796
107 2 0.352063 0.251223 0.0268766
108 1 0.352577 0.351302 0.0264833
109 2 0.249251 0.241019 0.0826152
110 1 0.250191 0.347057 0.0834111
111 1 0.347006 0.243869 0.0839506
112 2 0.349102 0.344827 0.0830062
121 1 0.251424 0.452758 0.0334009
123 2 0.351381 0.450922 0.0296353
125 2 0.254082 0.450793 0.0843537
127 1 0.351283 0.455511 0.0825802
185 1 0.452253 0.253053 0.0249636
186 2 0.451682 0.349989 0.0268
189 2 0.448587 0.250598 0.0790837
190 1 0.442678 0.343687 0.0896316
201 1 0.450668 0.444995 0.0292704
205 2 0.444978 0.445267 0.088434
187 2 0.554213 0.2508 0.0262116
188 1 0.546516 0.346708 0.0287862
191 1 0.542782 0.248129 0.0790235
192 2 0.552282 0.352012 0.0809594
203 2 0.544826 0.450977 0.0299729
207 1 0.557912 0.446364 0.0821858
265 1 0.654306 0.248363 0.0291016
266 2 0.649751 0.351801 0.0276553
267 2 0.74927 0.251002 0.0266082
268 1 0.745971 0.347374 0.0306868
269 2 0.653971 0.25153 0.0857403
270 1 0.647759 0.350168 0.0817394
271 1 0.752435 0.251869 0.0826476
272 2 0.746662 0.349902 0.0789518
281 1 0.648696 0.447815 0.0275573
283 2 0.748599 0.45047 0.0274842
285 2 0.653911 0.453763 0.0897561
287 1 0.748942 0.45653 0.0804826
345 1 0.851979 0.250947 0.0246133
346 2 0.846469 0.347072 0.0249304
347 2 0.951377 0.250975 0.0302685
348 1 0.946695 0.34603 0.0291067
349 2 0.848103 0.252382 0.0849631
350 1 0.842954 0.350605 0.0823417
351 1 0.946097 0.255535 0.0825605
352 2 0.946556 0.351585 0.0816744
361 1 0.84288 0.453415 0.0243301
363 2 0.942176 0.449715 0.0281241
365 2 0.847836 0.44809 0.082493
367 1 0.946608 0.44992 0.0792068
448 6 0.69771 0.337096 0.151267
449 4 0.714557 0.321785 0.13348
450 4 0.667448 0.360002 0.143662
451 3 0.67515 0.294388 0.165131
452 4 0.651852 0.269955 0.152909
453 4 0.655902 0.307198 0.182437
454 4 0.704892 0.268413 0.168121
455 5 0.517696 0.335093 0.117985
456 7 0.489833 0.324305 0.129045
457 6 0.491458 0.344772 0.155357
458 4 0.487196 0.385785 0.155747
459 4 0.524526 0.335035 0.165739
460 3 0.450541 0.324667 0.171125
461 4 0.449405 0.340489 0.189986
462 4 0.452962 0.285291 0.173329
463 4 0.417104 0.331084 0.161527
446 5 0.745154 0.388592 0.153596
447 7 0.732175 0.363285 0.165672
473 5 0.0569871 0.403696 0.191988
419 5 0.857689 0.138043 0.176034
481 4 0.963976 0.417831 0.137805
474 7 0.0290591 0.392872 0.181166
420 7 0.824935 0.128878 0.172025
422 4 0.8456 0.0582816 0.165034
421 6 0.821228 0.0856179 0.158022
480 4 0.938886 0.387194 0.165287
478 3 0.954072 0.420942 0.158298
423 4 0.828861 0.0918818 0.137328
475 6 -0.00114787 0.431946 0.17484
424 3 0.772019 0.0637411 0.161422
476 4 0.0207998 0.459722 0.164986
425 4 0.76735 0.0297586 0.150711
477 4 0.98888 0.449006 0.193662
479 4 0.92582 0.447927 0.160251
418 4 0.0661065 0.0392181 0.320026
426 4 0.74188 0.0856045 0.154166
427 4 0.763138 0.0550289 0.181487
415 3 0.0605331 0.00397766 0.310338
416 4 0.0265655 0.00410526 0.299986
1 1 0.05018 0.0482857 0.917702
2 2 0.0578754 0.151465 0.91333
3 2 0.157058 0.0471748 0.920486
4 1 0.157989 0.150474 0.920033
5 2 0.0511457 0.0535138 0.97042
6 1 0.052076 0.15131 0.969658
7 1 0.154898 0.0469474 0.969724
8 2 0.151106 0.146245 0.974105
81 1 0.254758 0.0498723 0.918506
82 2 0.255832 0.14887 0.918029
83 2 0.349588 0.047073 0.916162
84 1 0.350145 0.142504 0.917498
85 2 0.257013 0.0532291 0.971411
86 1 0.254427 0.152945 0.97247
87 1 0.35345 0.0496224 0.971545
88 2 0.355801 0.147976 0.972787
161 1 0.448084 0.0525077 0.916973
162 2 0.449699 0.145775 0.912648
165 2 0.449927 0.0507214 0.97158
166 1 0.451822 0.152521 0.97235
163 2 0.552776 0.0525497 0.921503
164 1 0.554288 0.147496 0.923352
167 1 0.550761 0.0486696 0.975804
168 2 0.550884 0.146898 0.975288
241 1 0.652265 0.0571282 0.920989
242 2 0.647004 0.152054 0.916275
243 2 0.748341 0.0543923 0.918519
244 1 0.752744 0.149509 0.92006
245 2 0.648766 0.0525764 0.972289
246 1 0.645399 0.153377 0.968894
247 1 0.747047 0.055857 0.971208
248 2 0.749195 0.148456 0.974945
321 1 0.848051 0.0516082 0.916655
322 2 0.851688 0.148661 0.913619
323 2 0.949847 0.0601845 0.920054
324 1 0.963289 0.155881 0.921708
325 2 0.847571 0.0505671 0.969841
326 1 0.850508 0.144405 0.970356
327 1 0.957259 0.0483867 0.970393
328 2 0.95499 0.152704 0.972001
17 1 0.0536826 0.248514 0.917443
18 2 0.04876 0.347181 0.918226
19 2 0.149415 0.252705 0.923385
20 1 0.147132 0.347108 0.921656
21 2 0.048824 0.244311 0.976409
22 1 0.0447848 0.348778 0.971989
23 1 0.155289 0.255336 0.974501
24 2 0.150799 0.354256 0.977161
33 1 0.047695 0.453378 0.917657
35 2 0.146514 0.445873 0.919968
37 2 0.0429314 0.452311 0.974206
39 1 0.14897 0.450579 0.973337
97 1 0.251719 0.250105 0.916577
98 2 0.252032 0.349227 0.918498
99 2 0.35227 0.248249 0.914566
100 1 0.354792 0.347656 0.917504
101 2 0.252511 0.251646 0.975901
102 1 0.250629 0.355242 0.977118
103 1 0.354689 0.250707 0.975639
104 2 0.348636 0.352852 0.972306
113 1 0.249883 0.44518 0.922628
115 2 0.350683 0.443955 0.915801
117 2 0.251759 0.447299 0.976008
119 1 0.345517 0.449724 0.975079
177 1 0.451038 0.245808 0.916614
178 2 0.452246 0.350295 0.915703
181 2 0.452624 0.252835 0.967855
182 1 0.449685 0.348474 0.971634
193 1 0.451378 0.449927 0.919437
197 2 0.450096 0.452599 0.973288
179 2 0.548224 0.243095 0.918318
180 1 0.548933 0.345527 0.919669
183 1 0.554254 0.24907 0.972957
184 2 0.549433 0.350907 0.974965
195 2 0.542879 0.454449 0.918195
199 1 0.549066 0.450037 0.974858
257 1 0.647029 0.246062 0.918937
258 2 0.64334 0.351535 0.91802
259 2 0.749332 0.250172 0.9172
260 1 0.741707 0.346158 0.916951
261 2 0.650744 0.24795 0.973001
262 1 0.647345 0.350552 0.976318
263 1 0.747112 0.247023 0.972182
264 2 0.749189 0.349482 0.973737
273 1 0.642918 0.454731 0.920872
275 2 0.745572 0.447731 0.918593
277 2 0.650171 0.450482 0.97271
279 1 0.748332 0.455616 0.97375
337 1 0.844217 0.247468 0.916847
338 2 0.848131 0.344983 0.917365
339 2 0.948749 0.252032 0.916121
340 1 0.954027 0.349922 0.919857
341 2 0.848141 0.247677 0.972566
342 1 0.845427 0.346572 0.97301
343 1 0.945959 0.249879 0.969688
344 2 0.947426 0.351861 0.973557
353 1 0.847299 0.445193 0.921824
355 2 0.953248 0.448705 0.917533
357 2 0.850665 0.450036 0.972212
359 1 0.947494 0.44466 0.973055
42 2 0.0504396 0.548513 0.0273156
44 1 0.143754 0.548704 0.0269955
46 1 0.0476125 0.548296 0.0797134
48 2 0.145013 0.548274 0.0823587
57 1 0.0500259 0.649331 0.0237308
59 2 0.150951 0.64802 0.0266735
61 2 0.0494616 0.645933 0.0818443
63 1 0.142202 0.642407 0.0818422
122 2 0.254826 0.552443 0.0288404
124 1 0.349209 0.552553 0.0304243
126 1 0.250599 0.552454 0.0827484
128 2 0.348211 0.550851 0.0846052
137 1 0.249442 0.652758 0.028712
139 2 0.349957 0.647782 0.029575
141 2 0.248254 0.649769 0.082485
143 1 0.349093 0.651871 0.0810036
202 2 0.446116 0.555465 0.0294387
206 1 0.448954 0.551262 0.0826322
217 1 0.448735 0.654392 0.0267364
221 2 0.447292 0.65361 0.0858782
204 1 0.547976 0.548846 0.0313349
208 2 0.545835 0.548985 0.0841651
219 2 0.548943 0.650187 0.026261
223 1 0.544981 0.653837 0.0797257
282 2 0.647146 0.549639 0.0295876
284 1 0.749584 0.557738 0.0288815
286 1 0.647476 0.552745 0.0866084
288 2 0.750081 0.552725 0.0810379
297 1 0.648169 0.653668 0.0287098
299 2 0.748809 0.653435 0.0267662
301 2 0.643581 0.651685 0.082311
303 1 0.753765 0.660516 0.0797746
362 2 0.843048 0.550763 0.0268002
364 1 0.951836 0.547832 0.0280785
366 1 0.852502 0.546216 0.0813452
368 2 0.947043 0.545588 0.0808906
377 1 0.848592 0.648009 0.0259839
379 2 0.950718 0.655038 0.0280264
381 2 0.847945 0.650497 0.0832393
383 1 0.949588 0.646712 0.0801426
58 2 0.048807 0.753462 0.026684
60 1 0.148809 0.749855 0.0242858
62 1 0.0488443 0.742038 0.077913
64 2 0.149283 0.753401 0.0779875
73 1 0.0507906 0.851828 0.0278765
74 2 0.0495875 0.94684 0.0231792
75 2 0.150654 0.845852 0.0254414
76 1 0.152131 0.954173 0.0259305
77 2 0.0506718 0.849291 0.0820228
78 1 0.0502271 0.948506 0.0768479
79 1 0.14809 0.847023 0.0805673
80 2 0.153073 0.95378 0.0780553
138 2 0.248143 0.749892 0.0246805
140 1 0.347126 0.748852 0.0254395
142 1 0.243322 0.750755 0.0767322
144 2 0.345122 0.747158 0.0773386
153 1 0.248278 0.842005 0.0281726
154 2 0.254328 0.955949 0.0256046
155 2 0.347348 0.846087 0.0266336
156 1 0.349793 0.951201 0.0275429
157 2 0.244977 0.848962 0.0815837
158 1 0.248194 0.952062 0.0783131
159 1 0.348023 0.847908 0.0800015
160 2 0.350391 0.948321 0.0799261
218 2 0.449503 0.753781 0.023987
222 1 0.449989 0.751922 0.0801573
233 1 0.454348 0.856279 0.0247608
234 2 0.455403 0.953646 0.0261553
237 2 0.452129 0.853678 0.082579
238 1 0.451227 0.955911 0.0825096
220 1 0.552633 0.750988 0.0265013
224 2 0.545672 0.749063 0.0796214
235 2 0.555832 0.849792 0.0274189
236 1 0.560915 0.951296 0.0247893
239 1 0.550203 0.858452 0.0807703
240 2 0.555177 0.95018 0.0803739
298 2 0.649517 0.748487 0.0285748
300 1 0.751379 0.751648 0.0268394
302 1 0.647594 0.751384 0.084888
304 2 0.746559 0.754976 0.0847116
313 1 0.654348 0.846574 0.0249178
314 2 0.657841 0.949113 0.023186
315 2 0.750059 0.845264 0.0289722
316 1 0.752875 0.953337 0.0224572
317 2 0.65204 0.852088 0.0812827
318 1 0.653166 0.950353 0.080485
319 1 0.751023 0.851765 0.0788543
320 2 0.750278 0.955426 0.0779018
378 2 0.847987 0.752592 0.0268916
380 1 0.95073 0.754586 0.0278326
382 1 0.850092 0.755074 0.0889704
384 2 0.951131 0.747382 0.0836815
393 1 0.854305 0.847399 0.0300183
394 2 0.847226 0.948196 0.0250816
395 2 0.950847 0.853253 0.0258793
396 1 0.944878 0.949931 0.0227511
397 2 0.848956 0.848156 0.082923
398 1 0.852082 0.951561 0.0803463
399 1 0.954489 0.851713 0.0829985
400 2 0.948744 0.948067 0.0789009
411 7 0.108053 0.966203 0.343436
413 4 0.0302039 0.972987 0.342584
443 4 0.441914 0.597418 0.494866
436 4 0.146607 0.891766 0.429225
417 4 0.0890426 0.997602 0.295846
445 4 0.389361 0.585576 0.477906
435 4 0.207926 0.898208 0.421658
432 4 0.180486 0.95809 0.386615
429 7 0.136032 0.898761 0.378628
482 5 0.067355 0.836679 0.275136
483 7 0.0509601 0.860481 0.263833
484 6 0.0837747 0.890462 0.250403
485 4 0.101176 0.869192 0.23415
486 4 0.114493 0.897924 0.263365
487 3 0.0614769 0.938371 0.240575
488 4 0.0868922 0.95997 0.227527
489 4 0.0557099 0.964407 0.255407
490 4 0.0275224 0.930641 0.231542
434 4 0.174551 0.94648 0.434599
431 4 0.1209 0.958797 0.401623
428 5 0.110174 0.880756 0.387087
430 6 0.15196 0.937026 0.395531
442 3 0.407819 0.614122 0.487883
414 4 0.0539328 0.92667 0.32446
444 4 0.418551 0.641373 0.473578
412 6 0.0608891 0.963206 0.331015
433 3 0.172676 0.916374 0.420935
410 5 0.114639 0.94063 0.355494
392 2 0.952656 0.952691 0.972079
401 5 0.487985 0.948906 0.561279
402 7 0.522906 0.948971 0.5573
403 6 0.535976 0.908992 0.541578
404 4 0.508646 0.909123 0.526438
405 4 0.535933 0.873596 0.550428
406 3 0.588048 0.914973 0.530669
407 4 0.596208 0.884243 0.51883
408 4 0.613882 0.919502 0.54593
409 4 0.589046 0.946903 0.518849
470 4 0.0987693 0.626452 0.621926
467 4 0.055787 0.551267 0.613766
469 3 0.0600984 0.619141 0.629232
471 4 0.0509633 0.640003 0.647328
472 4 0.0389143 0.635724 0.612615
464 5 0.995675 0.523574 0.645046
465 7 0.00160695 0.556825 0.642368
466 6 0.0480215 0.56621 0.632291
468 4 0.0744627 0.549122 0.645247
34 2 0.0496811 0.552627 0.917863
36 1 0.150123 0.545483 0.918933
38 1 0.0464148 0.555484 0.969773
40 2 0.14228 0.547467 0.973196
49 1 0.0491774 0.654661 0.916915
51 2 0.14579 0.644943 0.912766
53 2 0.0520388 0.650314 0.973519
55 1 0.148936 0.648102 0.973881
114 2 0.249661 0.54734 0.920647
116 1 0.348293 0.544678 0.92174
118 1 0.249373 0.547392 0.973983
120 2 0.351757 0.548462 0.971885
129 1 0.250389 0.646628 0.917433
131 2 0.345039 0.652472 0.919031
133 2 0.249037 0.646327 0.975492
135 1 0.350925 0.647621 0.976683
194 2 0.450071 0.549539 0.920007
198 1 0.452276 0.546274 0.976152
209 1 0.44823 0.648982 0.920734
213 2 0.447663 0.651589 0.971828
196 1 0.550887 0.552634 0.918873
200 2 0.545238 0.55365 0.977608
211 2 0.551643 0.653088 0.91561
215 1 0.546466 0.651331 0.974871
274 2 0.641877 0.545285 0.91815
276 1 0.739711 0.54472 0.923269
278 1 0.645476 0.549067 0.970773
280 2 0.748932 0.547613 0.974315
289 1 0.644141 0.645357 0.917201
291 2 0.741298 0.647373 0.917406
293 2 0.650236 0.649057 0.971143
295 1 0.745003 0.648842 0.975527
354 2 0.851548 0.547788 0.918927
356 1 0.954975 0.546953 0.917014
358 1 0.849934 0.55031 0.976339
360 2 0.947456 0.553872 0.978264
369 1 0.846666 0.644317 0.921186
371 2 0.948916 0.642457 0.91977
373 2 0.848945 0.645952 0.972882
375 1 0.953368 0.645953 0.973358
50 2 0.0427968 0.748284 0.915907
52 1 0.146846 0.737638 0.91872
54 1 0.0517145 0.751016 0.969855
56 2 0.14998 0.746836 0.972147
65 1 0.045981 0.850017 0.919271
66 2 0.0513009 0.951095 0.912219
67 2 0.143699 0.846091 0.918183
68 1 0.15058 0.943258 0.916535
69 2 0.0520832 0.846983 0.971447
70 1 0.0536447 0.947858 0.968258
71 1 0.15222 0.851524 0.96855
72 2 0.153501 0.946309 0.970414
130 2 0.245358 0.746498 0.920344
132 1 0.354803 0.756578 0.921961
134 1 0.25458 0.74604 0.973362
136 2 0.35101 0.749595 0.973719
145 1 0.248823 0.851763 0.91642
146 2 0.254711 0.945462 0.911521
147 2 0.356333 0.851022 0.915282
148 1 0.351914 0.946587 0.913794
149 2 0.250584 0.847658 0.968737
150 1 0.248132 0.951072 0.969359
151 1 0.351707 0.855394 0.969635
152 2 0.351822 0.949916 0.97294
210 2 0.455391 0.750752 0.920416
214 1 0.451324 0.749668 0.971282
225 1 0.457524 0.846976 0.917692
226 2 0.453552 0.951257 0.917878
229 2 0.447427 0.852411 0.973758
230 1 0.455835 0.948815 0.97404
212 1 0.556839 0.748796 0.921019
216 2 0.556246 0.752988 0.972802
227 2 0.5541 0.85581 0.920244
228 1 0.550124 0.954368 0.91876
231 1 0.557246 0.851639 0.972332
232 2 0.551276 0.951374 0.975553
290 2 0.651319 0.754059 0.917825
292 1 0.750576 0.746283 0.916617
294 1 0.650346 0.752606 0.97098
296 2 0.747368 0.75032 0.972252
305 1 0.645903 0.856078 0.917909
306 2 0.654392 0.956106 0.917256
307 2 0.750046 0.851925 0.917586
308 1 0.756315 0.952758 0.915772
309 2 0.65181 0.852304 0.972187
310 1 0.651793 0.952678 0.971514
311 1 0.75096 0.848801 0.971493
312 2 0.750826 0.9488 0.970007
370 2 0.848327 0.739687 0.916112
372 1 0.945033 0.747146 0.918042
374 1 0.848897 0.74351 0.976804
376 2 0.948218 0.750923 0.974616
385 1 0.846723 0.848712 0.918338
386 2 0.85715 0.950819 0.915329
387 2 0.945826 0.848935 0.919926
388 1 0.952735 0.954543 0.920452
389 2 0.854533 0.849585 0.974323
390 1 0.853297 0.949437 0.970477
391 1 0.949961 0.851314 0.973662
439 6 0.379329 0.63623 0.511494
441 4 0.402938 0.664064 0.519142
440 4 0.374246 0.609182 0.526657
437 5 0.31712 0.670228 0.52013
438 7 0.333823 0.657364 0.50484
ITEM: TIMESTEP
2000
ITEM: NUMBER OF ATOMS
490
ITEM: BOX BOUNDS pp pp pp
-1.3763674399747250e+01 1.3763674399747250e+01
-1.3758968797213907e+01 1.3758968797213907e+01
-2.5680000000000000e+01 2.5680000000000000e+01
ITEM: ATOMS id type xs ys zs
9 1 0.0428376 0.0487265 0.0254456
10 2 0.05179 0.151627 0.0251702