ITEM: TIMESTEP
0
ITEM: NUMBER OF ATOMS
576
ITEM: BOX BOUNDS pp pp pp
1.2258942925177916e+00 1.9359683419082572e+01
1.2587857059720395e+00 1.9326792005627880e+01
-1.0858759137159222e+00 2.1671453625314072e+01
ITEM: ATOMS id type xs ys zs
352 1 0.2227 0.313634 0.198124
269 2 0.163363 0.180163 0.076111
91 1 0.285012 0.322167 0.080282
27 2 0.220546 0.325611 0.128917
104 2 0.282922 0.104713 0.0781373
54 2 0.0372583 0.256419 0.115832
210 1 0.241164 0.165881 0.0430169
571 2 0.280358 0.248256 0.0407842
263 1 0.0929534 0.231522 0.0597844
536 2 0.15954 0.264041 0.223026
525 1 0.241811 0.02712 0.09895
376 2 0.0233571 0.0461837 0.0536922
229 2 0.295917 0.265081 0.211415
141 2 0.16109 0.0266342 0.0688323
221 2 0.11702 0.300177 0.0214823
520 2 0.244089 0.0213991 0.170298
431 2 0.0438246 0.178751 0.0147222
297 2 0.0742334 0.0275682 0.159129
48 1 0.0800532 0.0039922 0.093678
556 2 0.476401 0.291519 0.0307989
65 1 0.366496 0.212871 0.209767
348 2 0.39231 0.184429 0.146254
354 1 0.446422 0.123063 0.120121
504 2 0.442139 0.107988 0.0499021
528 2 0.434016 0.0413957 0.147572
476 2 0.428712 0.267677 0.234502
106 2 0.355423 0.140423 0.249389
339 2 0.0909789 0.43737 0.0335648
266 2 0.267773 0.392328 0.039724
24 2 0.0462891 0.44908 0.153768
482 2 0.2156 0.392821 0.231962
100 1 0.0717632 0.484863 0.0913583
416 1 0.0178747 0.482224 0.214116
274 2 0.482362 0.460185 0.186627
230 2 0.366298 0.334828 0.104006
379 1 0.450434 0.347989 0.084338
257 2 0.463877 0.429623 0.0594937
532 1 0.449759 0.483632 0.0044124
460 1 0.0652026 0.365057 0.00114016
488 1 0.167749 0.586495 0.155008
14 2 0.137379 0.660013 0.119995
305 2 0.253395 0.588233 0.171562
283 2 0.120467 0.567784 0.214261
497 1 0.326042 0.628671 0.193048
472 2 0.150678 0.521071 0.108863
375 2 0.0765947 0.635043 0.0115389
168 2 0.392233 0.570681 0.202869
326 1 0.461435 0.527268 0.231815
8 2 0.4818 0.565619 0.0189568
162 2 0.000836388 0.534401 0.078746
361 1 0.131272 0.847427 0.0679348
224 2 0.176777 0.836508 0.127565
254 1 0.164211 0.830679 0.196124
394 2 0.0728511 0.913601 0.0825426
321 2 0.091823 0.773429 0.0508013
541 1 0.0754172 0.686249 0.0708449
562 2 0.28005 0.951697 0.0766846
421 2 0.191354 0.908914 0.227233
414 2 0.215019 0.76723 0.222952
220 2 0.0813356 0.811771 0.214872
128 1 0.259578 0.966947 0.224071
139 2 0.172689 0.862989 0.00522633
112 2 0.320128 0.807191 0.0891228
539 2 0.331631 0.693331 0.0173876
166 2 0.331236 0.91917 0.214832
273 1 0.00245862 0.798018 0.243718
111 1 0.337359 0.887299 0.0624831
564 2 0.347522 0.680444 0.139407
300 1 0.356766 0.726932 0.0802546
96 2 0.444389 0.742674 0.0726395
5 2 0.491034 0.709428 0.18009
4 2 0.4667 0.913544 0.192169
49 2 0.41171 0.919237 0.08771
433 1 0.465149 0.963278 0.129543
110 1 0.40539 0.883873 0.238363
50 2 0.40413 0.795279 0.238023
435 1 0.474727 0.737647 0.244925
285 2 0.238389 0.0601065 0.483068
486 2 0.0610377 0.0191248 0.305715
314 2 0.218353 0.144663 0.27489
33 2 0.275339 0.201362 0.480489
45 2 0.0786628 0.155508 0.267179
569 1 0.150559 0.203428 0.273223
461 1 0.0230594 0.100116 0.298717
468 2 0.0358228 0.312194 0.336183
490 2 0.110638 0.325683 0.432976
108 2 0.156923 0.248504 0.335878
11 1 0.120182 0.319986 0.362075
399 1 0.291154 0.103169 0.292049
47 1 0.158222 0.0285347 0.466378
28 1 0.035663 0.305368 0.465174
29 1 0.311881 0.283325 0.477637
485 2 0.273822 0.0180133 0.281676
68 2 0.0190383 0.221446 0.453077
233 2 0.146289 0.0202576 0.39712
441 2 0.318457 0.112581 0.356738
495 2 0.408245 0.00899067 0.372305
454 2 0.334742 0.310437 0.412283
241 2 0.37012 0.0995423 0.463818
533 1 0.484041 0.306249 0.281411
197 2 0.455956 0.144953 0.379083
236 1 0.390904 0.0921687 0.395085
459 2 0.00192668 0.137423 0.361751
101 1 0.299399 0.121136 0.499722
544 2 0.0942493 0.0824441 0.49072
447 2 0.162213 0.392484 0.340337
334 1 0.224761 0.426834 0.297526
387 2 0.303019 0.400434 0.324294
153 2 0.0199998 0.420509 0.265135
552 1 0.458198 0.499087 0.368363
95 2 0.439858 0.49878 0.298037
183 1 0.365888 0.375613 0.37027
258 2 0.437246 0.340744 0.334261
413 2 0.39221 0.449656 0.399717
194 2 0.0108703 0.491606 0.41388
365 2 0.15276 0.542659 0.419045
131 2 0.0766184 0.556321 0.325844
30 1 0.0695339 0.556731 0.396752
272 1 0.210375 0.563523 0.468148
502 2 0.281068 0.608918 0.439375
251 2 0.0479064 0.636623 0.417932
76 2 0.173866 0.657806 0.296103
505 1 0.145229 0.575856 0.283982
391 2 0.207534 0.515036 0.293537
142 2 0.46044 0.585036 0.390085
333 2 0.30591 0.667431 0.257159
205 2 0.296304 0.742645 0.483436
442 1 0.220239 0.786168 0.4781
424 1 0.101919 0.964263 0.354398
170 2 0.154636 0.738897 0.448982
123 2 0.159714 0.895835 0.341456
407 1 0.239488 0.71914 0.281045
404 2 0.245869 0.773478 0.338124
519 2 0.233746 0.854601 0.43228
200 1 0.0714639 0.71656 0.44498
219 1 0.236468 0.858477 0.361847
211 2 0.0357941 0.926098 0.389574
508 2 0.313286 0.899941 0.344434
53 2 0.022778 0.784713 0.416448
146 1 0.340948 0.674782 0.453128
133 2 0.384244 0.703245 0.394563
227 1 0.397974 0.923261 0.362409
135 2 0.44598 0.893651 0.305034
19 1 0.4616 0.672277 0.370442
6 2 0.41676 0.878122 0.419255
223 2 0.459964 0.681108 0.300023
406 1 0.460774 0.907422 0.475997
320 2 0.1695 0.220466 0.703474
299 1 0.213369 0.27304 0.658703
177 2 0.29739 0.252431 0.647538
180 2 0.168101 0.276326 0.599854
337 2 0.0731151 0.0587236 0.670778
7 2 0.308412 0.117381 0.572298
408 1 0.289628 0.0639403 0.626755
286 2 0.203753 0.0453351 0.617295
492 2 0.0500573 0.312067 0.535385
346 2 0.297563 0.0902606 0.69673
165 1 0.00859001 0.0762685 0.512668
425 1 0.138931 0.00376715 0.652305
60 2 0.366525 0.331727 0.727615
118 1 0.377311 0.26724 0.677825
559 1 0.453102 0.267247 0.557911
549 2 0.441553 0.276873 0.627135
176 2 0.391496 0.192774 0.71616
521 2 0.470709 0.0535458 0.596363
356 2 0.472339 0.183422 0.542867
477 2 0.38036 0.289629 0.522834
370 1 0.350163 0.125226 0.746847
389 1 0.106265 0.337168 0.583022
87 2 0.150579 0.412935 0.562448
58 2 0.0608327 0.349411 0.6449
207 2 0.210391 0.352526 0.689735
501 2 0.298139 0.423089 0.587075
316 1 0.235009 0.417144 0.536631
373 2 0.161403 0.470004 0.74892
572 2 0.000592532 0.408341 0.739436
444 1 0.499944 0.435308 0.667162
276 2 0.418312 0.44564 0.642933
289 1 0.360365 0.481829 0.60001
186 2 0.251884 0.343035 0.500257
158 2 0.242443 0.49384 0.502969
409 2 0.237313 0.642517 0.708039
550 1 0.107903 0.651255 0.559324
51 2 0.0598028 0.587965 0.590134
42 2 0.0607674 0.568212 0.705533
517 2 0.167108 0.614859 0.517345
102 1 0.318931 0.604212 0.692173
464 2 0.319026 0.550134 0.635817
452 1 0.0130016 0.558554 0.647016
547 2 0.405795 0.514368 0.544283
15 2 0.473391 0.602712 0.604227
191 1 0.453651 0.591822 0.534504
511 2 0.3425 0.557286 0.749838
446 2 0.401723 0.653642 0.503719
499 2 0.152347 0.70245 0.604813
98 2 0.290049 0.759245 0.62001
264 1 0.20651 0.773435 0.608941
268 2 0.171922 0.821212 0.664782
445 2 0.199586 0.812359 0.545633
69 2 0.0338459 0.832588 0.706918
172 1 0.117033 0.813715 0.721837
303 2 0.101802 0.940591 0.610616
119 1 0.0659903 0.930164 0.547206
294 2 0.0327516 0.846225 0.537393
518 2 0.0526851 0.70539 0.519126
439 2 0.125719 0.729691 0.739785
78 2 0.410131 0.959961 0.518467
295 2 0.373735 0.673741 0.684421
498 1 0.368812 0.753728 0.652233
506 1 0.495743 0.835143 0.588492
448 2 0.440812 0.772115 0.609192
213 2 0.461246 0.911397 0.616988
473 2 0.374054 0.817435 0.702513
304 2 0.48894 0.841705 0.519263
164 1 0.419035 0.978779 0.588774
540 2 0.339505 0.993486 0.617154
393 2 0.131846 0.953116 0.50157
277 2 0.00451853 0.993367 0.53598
481 2 0.175315 0.977188 0.71218
325 1 0.470513 0.0021927 0.780513
487 1 0.115906 0.237749 0.75964
188 2 0.123929 0.323015 0.770985
196 2 0.0350029 0.209108 0.755543
73 1 0.191602 0.0652102 0.938546
524 1 0.22939 0.177184 0.841761
44 2 0.153387 0.196029 0.814647
512 2 0.216108 0.0993782 0.874716
563 2 0.25168 0.246633 0.885015
574 2 0.296692 0.166022 0.796089
40 2 0.101371 0.0652902 0.951449
66 1 0.0121623 0.0245186 0.817615
189 2 0.223785 0.131447 0.981265
248 2 0.00959442 0.108786 0.837353
154 1 0.0343634 0.0946421 0.991888
343 1 0.330119 0.283093 0.900919
145 1 0.496617 0.0186047 0.914748
99 2 0.404173 0.0637002 0.773972
557 2 0.369282 0.310494 0.840854
382 2 0.381296 0.219515 0.926642
417 1 0.456276 0.176503 0.904278
148 2 0.480033 0.191354 0.834398
384 2 0.445359 0.0901541 0.910391
568 1 0.184419 0.384762 0.751744
484 2 0.238565 0.457835 0.93733
59 2 0.258192 0.381618 0.79539
529 2 0.0438817 0.359561 0.9327
182 1 0.300829 0.423214 0.97875
214 2 0.333433 0.351496 0.945923
296 2 0.365201 0.480796 0.987189
381 1 0.347263 0.369372 0.792583
322 2 0.377562 0.44934 0.810667
72 2 0.488338 0.449622 0.946107
262 1 0.103702 0.536523 0.76476
281 1 0.0726915 0.608532 0.941152
159 2 0.272776 0.53892 0.846341
271 1 0.229799 0.539961 0.91086
545 2 0.151444 0.603415 0.791004
287 2 0.27615 0.598668 0.948016
500 2 0.147928 0.56967 0.917557
359 2 0.00695597 0.547971 0.933466
235 1 0.354024 0.532374 0.81548
225 2 0.408992 0.584362 0.850178
38 1 0.490611 0.618039 0.85305
103 2 0.0442919 0.504291 0.81175
570 1 0.189411 0.675484 0.762736
493 2 0.145859 0.863145 0.774688
231 2 0.0989457 0.820342 0.910586
267 2 0.205618 0.731291 0.9589
143 2 0.237437 0.957242 0.821275
201 1 0.1772 0.815865 0.944481
192 1 0.266371 0.935999 0.885577
184 2 0.236917 0.85052 0.901619
308 1 0.285071 0.687317 0.958457
340 2 0.245094 0.718713 0.805173
169 2 0.0530385 0.68018 0.902912
514 1 0.0289503 0.767452 0.894743
451 1 0.164402 0.950623 0.781747
37 1 0.313387 0.753332 0.837293
195 2 0.3249 0.723883 0.900851
84 1 0.424957 0.835305 0.758488
32 2 0.433346 0.924231 0.761451
311 2 0.356689 0.925189 0.88632
566 2 0.452476 0.814584 0.933956
134 2 0.495519 0.702831 0.872456
368 2 0.379393 0.799373 0.812241
237 1 0.40591 0.890733 0.940723
555 2 0.460932 0.956808 0.95703
288 2 0.345505 0.875191 0.993334
310 2 0.0948002 0.990313 0.813655
429 2 0.23347 0.98683 0.939171
380 1 0.546006 0.251352 0.0041031
116 2 0.527868 0.142758 0.142653
290 1 0.605882 0.168319 0.114736
440 2 0.585768 0.193895 0.0510496
367 2 0.645902 0.231739 0.154381
140 2 0.650432 0.0289055 0.219115
171 2 0.658233 0.0968413 0.106909
79 2 0.994737 0.284911 0.224899
175 2 0.888987 0.238626 0.028317
426 1 0.816433 0.190128 0.0279831
12 1 0.707273 0.0465061 0.0663113
298 1 0.967045 0.267994 0.159768
390 1 0.699553 0.238938 0.211262
246 1 0.833892 0.166455 0.157806
401 2 0.832047 0.092654 0.196886
179 2 0.917559 0.196993 0.153218
422 2 0.783365 0.228855 0.187993
67 2 0.806787 0.146947 0.0909237
507 1 0.887676 0.0384087 0.234619
242 2 0.692429 0.315758 0.245951
357 2 0.747158 0.242547 0.013054
129 1 0.904379 0.317234 0.00464248
513 2 0.621514 0.420941 0.150154
278 2 0.510925 0.334104 0.135862
462 1 0.544521 0.395339 0.179608
455 2 0.540322 0.359848 0.245856
328 2 0.879897 0.469342 0.116921
388 1 0.700295 0.455634 0.138578
535 2 0.981568 0.351657 0.0284945
336 1 0.847325 0.385266 0.111115
358 2 0.762892 0.390307 0.137901
374 2 0.846132 0.365701 0.0427101
306 2 0.907917 0.337112 0.146597
510 2 0.561419 0.662567 0.0819393
489 1 0.552256 0.619565 0.0199549
238 2 0.534899 0.57146 0.240592
63 2 0.903251 0.51256 0.00387503
335 1 0.913704 0.533463 0.075484
546 2 0.726096 0.652345 0.15581
151 2 0.882552 0.613497 0.0914192
46 1 0.733318 0.597293 0.209811
130 2 0.820095 0.60198 0.227332
360 2 0.956943 0.542176 0.229102
43 2 0.70965 0.517742 0.18956
523 1 0.708942 0.550673 0.015521
385 2 0.62505 0.570929 0.00200973
222 2 0.755137 0.630941 0.00546681
396 2 0.713538 0.500845 0.0766926
317 1 0.518934 0.729007 0.113662
80 2 0.560229 0.808054 0.108599
247 2 0.544867 0.954625 0.0992943
20 1 0.600366 0.885988 0.100466
575 2 0.641817 0.89949 0.166856
516 1 0.644732 0.941146 0.22891
270 2 0.650472 0.88271 0.0461858
121 2 0.994279 0.692884 0.105349
193 2 0.951198 0.836991 0.194648
432 2 0.886584 0.747138 0.0400478
190 1 0.90544 0.69839 0.0992059
10 1 0.89953 0.898068 0.167284
307 1 0.759026 0.735694 0.154943
114 2 0.848235 0.733758 0.14397
212 2 0.725344 0.78142 0.100983
465 2 0.737906 0.778093 0.216338
347 2 0.892534 0.906207 0.0976411
372 1 0.718345 0.824327 0.0387036
531 2 0.816989 0.893693 0.1909
470 1 0.833462 0.942879 0.0540702
522 2 0.789055 0.876314 0.0227065
345 1 0.774797 0.852262 0.24336
449 2 0.924634 0.976948 0.196639
97 2 0.769817 0.993121 0.0861126
284 2 0.872332 0.995586 0.00710307
323 2 0.986306 0.712848 0.249734
418 2 0.523352 0.233267 0.306238
292 2 0.560427 0.0983782 0.298198
551 1 0.528979 0.162121 0.343572
554 2 0.596987 0.175756 0.388885
26 2 0.646388 0.312506 0.357673
228 1 0.647346 0.0885464 0.275731
312 2 0.646876 0.260006 0.468782
561 1 0.654538 0.240726 0.400072
35 2 0.946842 0.0919119 0.26442
275 2 0.790915 0.120772 0.473587
113 2 0.702536 0.0515265 0.321249
147 1 0.961197 0.168902 0.419825
434 1 0.808416 0.168351 0.412026
402 2 0.884522 0.208835 0.413465
483 2 0.736928 0.210741 0.390701
88 2 0.955301 0.0932495 0.457606
261 2 0.679769 0.169918 0.254913
467 2 0.819699 0.109871 0.35883
39 1 0.784555 0.0329108 0.340008
243 2 0.838882 0.00204459 0.288826
509 2 0.84407 0.476478 0.279869
331 2 0.907355 0.482139 0.494079
208 1 0.623893 0.491119 0.3635
351 2 0.540486 0.469999 0.379908
395 2 0.650959 0.439033 0.308359
309 1 0.939524 0.445899 0.4366
438 2 0.882049 0.434854 0.385761
174 1 0.848886 0.407693 0.322161
107 2 0.68339 0.468166 0.414419
548 2 0.770954 0.369917 0.329957
458 2 0.967283 0.360649 0.450542
534 1 0.991913 0.340507 0.280848
538 2 0.906082 0.351241 0.292165
1 1 0.688909 0.357066 0.308058
55 1 0.68376 0.474647 0.483482
397 1 0.843196 0.64095 0.378643
463 2 0.624666 0.582469 0.358641
136 1 0.679731 0.641961 0.334097
16 2 0.892225 0.598882 0.329962
21 1 0.879635 0.557328 0.263962
456 2 0.858129 0.635705 0.449112
150 2 0.687679 0.629422 0.265726
457 2 0.758661 0.616977 0.363606
324 2 0.772297 0.737885 0.499506
553 2 0.577587 0.931139 0.274002
215 2 0.537165 0.794337 0.264751
52 2 0.521471 0.963181 0.450264
560 1 0.533785 0.867834 0.306982
120 1 0.601031 0.768427 0.395395
341 2 0.529442 0.715562 0.399623
13 2 0.568883 0.84526 0.367877
252 2 0.642204 0.781865 0.456
187 2 0.657167 0.724888 0.351916
576 2 0.66056 0.973905 0.437302
280 1 0.593339 0.994812 0.485995
400 2 0.829152 0.830103 0.29446
115 2 0.843658 0.730425 0.372964
17 2 0.900825 0.859592 0.392657
259 2 0.998962 0.837631 0.306788
363 1 0.737997 0.928053 0.43205
226 1 0.829504 0.820403 0.36394
265 2 0.759649 0.899471 0.495184
167 2 0.75479 0.853132 0.393554
378 2 0.712314 0.906835 0.265706
173 1 0.987988 0.851388 0.378369
152 2 0.791413 0.985932 0.398171
315 2 0.541626 0.0242444 0.743387
206 2 0.515648 0.325774 0.535145
543 1 0.52265 0.115482 0.565664
156 1 0.610374 0.172707 0.677501
62 2 0.575193 0.149521 0.61352
419 2 0.54876 0.194665 0.725881
203 2 0.653104 0.0989525 0.698594
198 2 0.648186 0.312965 0.568529
209 1 0.627368 0.0155464 0.720672
405 2 0.662149 0.246722 0.681941
392 2 0.566589 0.0755341 0.507765
94 2 0.984917 0.136616 0.561281
74 1 0.985406 0.0508992 0.685162
109 1 0.914607 0.156957 0.603087
234 2 0.938109 0.121873 0.665635
427 2 0.838903 0.119983 0.582896
41 2 0.784302 0.311297 0.640711
83 1 0.864912 0.320772 0.614798
64 1 0.743698 0.277359 0.69732
117 2 0.710737 0.175561 0.554162
411 2 0.903328 0.244027 0.601983
255 1 0.766299 0.107602 0.542491
313 2 0.791103 0.203062 0.714684
327 1 0.695685 0.258421 0.528865
436 2 0.739048 0.0235422 0.553988
61 2 0.780725 0.280508 0.513067
410 2 0.996205 0.473774 0.637865
122 2 0.612487 0.434613 0.514966
239 2 0.559593 0.413305 0.619096
253 1 0.581915 0.372437 0.55925
558 2 0.508318 0.389081 0.726604
93 1 0.99412 0.397681 0.670041
9 2 0.871265 0.382347 0.564946
349 2 0.916938 0.351077 0.667825
291 1 0.843031 0.458473 0.539036
330 2 0.755936 0.483395 0.732911
178 2 0.764496 0.44924 0.507251
437 2 0.752303 0.339185 0.747668
18 2 0.536341 0.593878 0.508954
471 1 0.54457 0.58869 0.644489
216 2 0.564982 0.659045 0.682183
423 2 0.612861 0.571551 0.601573
353 1 0.617951 0.605542 0.536366
319 2 0.526896 0.517824 0.684275
420 2 0.843622 0.656712 0.570744
218 1 0.851917 0.593397 0.625056
430 2 0.934161 0.59694 0.648332
250 2 0.788654 0.606745 0.678299
217 1 0.752503 0.573252 0.737821
450 2 0.831859 0.5162 0.591732
132 2 0.66752 0.595935 0.742729
34 2 0.676866 0.56122 0.500812
344 1 0.642026 0.877143 0.644243
293 2 0.578018 0.831096 0.612052
185 2 0.624715 0.958856 0.667165
204 2 0.640705 0.690949 0.542605
125 2 0.652917 0.830204 0.708084
355 2 0.600935 0.945645 0.542014
342 2 0.506673 0.805012 0.745174
245 1 0.850779 0.696213 0.507102
82 1 0.995076 0.769577 0.547211
232 2 0.91941 0.753474 0.513124
474 2 0.988075 0.755834 0.616586
369 2 0.811156 0.958499 0.692086
494 2 0.717221 0.882283 0.606373
478 1 0.762465 0.932907 0.561335
496 1 0.875904 0.927934 0.651224
318 1 0.96044 0.787983 0.678938
491 2 0.894423 0.845179 0.666258
279 2 0.935394 0.731417 0.728518
36 2 0.846285 0.930345 0.584444
124 2 0.947275 0.980356 0.652739
542 1 0.687373 0.748498 0.510107
149 2 0.82404 0.130351 0.976598
23 2 0.614421 0.303358 0.991484
526 2 0.573745 0.0471387 0.942622
480 1 0.657667 0.0221988 0.934737
160 2 0.5677 0.298429 0.801331
302 2 0.519929 0.207193 0.946732
515 1 0.550012 0.210125 0.796222
31 2 0.618087 0.157361 0.817432
475 2 0.678308 0.218011 0.916034
144 2 0.84839 0.0230558 0.898699
466 2 0.978726 0.0257992 0.75235
329 2 0.991488 0.253515 0.86297
386 2 0.905213 0.320445 0.934797
57 1 0.983148 0.189195 0.812886
398 1 0.69462 0.280137 0.965021
527 2 0.959701 0.086082 0.957076
443 1 0.975314 0.333147 0.893582
157 2 0.757581 0.183125 0.826163
86 2 0.695792 0.0766779 0.889481
364 2 0.895335 0.191027 0.798957
469 1 0.689084 0.158358 0.863317
127 1 0.87659 0.0609662 0.957762
362 1 0.815577 0.164046 0.776354
77 2 0.819601 0.0745441 0.768277
81 2 0.696586 0.0404789 0.998751
249 2 0.638817 0.414351 0.769678
244 1 0.558038 0.382232 0.781782
56 1 0.545695 0.475622 0.897392
301 2 0.524452 0.433473 0.835677
530 2 0.625996 0.44081 0.911362
537 2 0.739665 0.49812 0.959068
573 2 0.735488 0.353009 0.935907
565 2 0.747314 0.442498 0.844401
163 1 0.71494 0.436113 0.911054
332 2 0.955462 0.397056 0.847708
75 1 0.973513 0.453462 0.798802
138 1 0.72904 0.414661 0.774527
202 2 0.915253 0.646897 0.964408
155 1 0.597159 0.648118 0.750729
89 2 0.540296 0.564677 0.891325
70 2 0.526919 0.616458 0.788222
90 2 0.870858 0.547964 0.889993
3 1 0.920302 0.560469 0.947118
567 2 0.930919 0.644176 0.820246
415 1 0.874369 0.573569 0.822629
161 2 0.797507 0.594933 0.794475
25 2 0.908214 0.508326 0.785065
428 2 0.828186 0.94001 0.801611
366 2 0.708426 0.666912 0.898155
503 2 0.702551 0.761628 0.991142
453 1 0.874563 0.954079 0.860464
85 2 0.857281 0.877519 0.894445
383 2 0.729977 0.826002 0.862377
22 2 0.995236 0.77638 0.829199
240 2 0.963803 0.781347 0.94099
126 2 0.50167 0.990619 0.847392
2 1 0.596778 0.808746 0.761252
412 2 0.537642 0.691594 0.975717
105 2 0.619175 0.725439 0.780062
199 1 0.518277 0.754737 0.925596
338 2 0.593517 0.804146 0.916968
260 2 0.606884 0.866403 0.813666
282 1 0.649736 0.858185 0.876249
181 1 0.897615 0.736069 0.969191
256 2 0.697738 0.989738 0.760583
350 2 0.65423 0.936816 0.911316
377 2 0.851965 0.761806 0.821163
403 2 0.822237 0.741776 0.932688
71 2 0.963823 0.965549 0.852885
137 1 0.928274 0.727133 0.797381
371 1 0.811499 0.800476 0.875301
92 1 0.745812 0.698117 0.957541
479 1 0.787405 0.994164 0.754909
ITEM: TIMESTEP
1000
ITEM: NUMBER OF ATOMS
576
ITEM: BOX BOUNDS pp pp pp
1.2258942925177916e+00 1.9359683419082572e+01
1.2587857059720395e+00 1.9326792005627880e+01
-1.0858759137159222e+00 2.1671453625314072e+01
ITEM: ATOMS id type xs ys zs
352 1 0.232981 0.317015 0.203481
269 2 0.15889 0.187585 0.0826089
91 1 0.281156 0.328326 0.0800954
27 2 0.224257 0.329456 0.135189
104 2 0.272625 0.100278 0.0883255
54 2 0.0339205 0.252093 0.115194
210 1 0.238517 0.170872 0.0533127
571 2 0.282032 0.245469 0.050711
263 1 0.0864844 0.226308 0.0593608
536 2 0.168567 0.265529 0.23229
525 1 0.237481 0.0238808 0.104298
376 2 0.0157724 0.0484216 0.0534844
229 2 0.309338 0.273814 0.214499
141 2 0.154348 0.0228508 0.0800584
221 2 0.110335 0.294593 0.0184104
520 2 0.245141 0.0167217 0.173058
431 2 0.0430846 0.17574 0.0129561
297 2 0.0609952 0.0318112 0.165749
48 1 0.0701963 1.00303 0.101418
556 2 0.47719 0.286974 0.0325334
65 1 0.367168 0.206093 0.206542
348 2 0.393478 0.18478 0.144305
354 1 0.446053 0.122323 0.116787
504 2 0.445589 0.114625 0.0477032
528 2 0.422055 0.0394503 0.138876
476 2 0.440662 0.224176 0.243387
106 2 0.343139 0.131298 0.241671
339 2 0.0877241 0.43693 0.0302133
266 2 0.260027 0.391839 0.0347044
24 2 0.0470659 0.452133 0.149544
482 2 0.235205 0.395563 0.238041
100 1 0.0691145 0.4855 0.0856452
416 1 0.0192162 0.485292 0.211262
274 2 0.474358 0.442621 0.200821
230 2 0.364282 0.349403 0.0994891
379 1 0.451723 0.349073 0.0802332
257 2 0.467666 0.431859 0.0602592
532 1 0.452985 0.484029 0.00479801
273 1 0.00141018 0.797333 0.245538
488 1 0.16207 0.588879 0.151561
14 2 0.131263 0.6653 0.121332
305 2 0.24675 0.589543 0.168077
283 2 0.119815 0.569396 0.212247
497 1 0.324192 0.626508 0.192335
472 2 0.144025 0.528369 0.101977
375 2 0.0752478 0.640702 0.0120247
168 2 0.394157 0.568922 0.19857
326 1 0.458822 0.522039 0.233943
8 2 0.481894 0.567032 0.0181266
406 1 0.457367 0.901018 0.474278
361 1 0.115231 0.851996 0.069792
224 2 0.168477 0.842925 0.126703
254 1 0.16402 0.83199 0.197689
394 2 0.0595715 0.918208 0.0860796
321 2 0.0750019 0.775882 0.0572635
541 1 0.0689038 0.689201 0.0736142
562 2 0.277674 0.953823 0.0744132
421 2 0.187185 0.908216 0.228078
414 2 0.217488 0.765 0.218105
220 2 0.0836288 0.803552 0.218584
128 1 0.254052 0.966618 0.230677
139 2 0.163736 0.864915 0.0109939
112 2 0.318379 0.809961 0.0946614
539 2 0.327489 0.702659 0.0215777
166 2 0.328092 0.91719 0.223158
186 2 0.256208 0.354121 0.488207
111 1 0.328705 0.884887 0.0603908
564 2 0.345591 0.674779 0.137495
300 1 0.357246 0.732162 0.0860969
96 2 0.444768 0.744853 0.0834842
158 2 0.247466 0.496506 0.494451
4 2 0.456493 0.907846 0.186174
49 2 0.413745 0.909972 0.0801508
433 1 0.458877 0.958538 0.12562
110 1 0.403917 0.873926 0.234376
50 2 0.403914 0.786742 0.236036
435 1 0.477125 0.735946 0.245337
285 2 0.244801 0.0635581 0.482174
486 2 0.0549772 0.0199184 0.312763
314 2 0.222031 0.153519 0.295471
33 2 0.284806 0.204276 0.480574
45 2 0.0839255 0.158467 0.274694
569 1 0.155031 0.206344 0.287149
461 1 0.0221273 0.10117 0.300284
468 2 0.0314263 0.315727 0.335097
490 2 0.0984896 0.350322 0.428886
108 2 0.156679 0.259213 0.344774
11 1 0.110642 0.331812 0.361445
399 1 0.291518 0.102861 0.295274
47 1 0.160927 0.0342591 0.474797
28 1 0.0311334 0.315023 0.466566
29 1 0.315965 0.287184 0.479549
485 2 0.264087 0.0221895 0.285142
68 2 0.026138 0.231219 0.44875
233 2 0.139985 0.0241367 0.405941
441 2 0.3391 0.119361 0.353216
495 2 0.396431 0.996495 0.374541
454 2 0.354601 0.308968 0.41843
241 2 0.377367 0.0973016 0.463342
533 1 0.474076 0.286882 0.289649
197 2 0.482818 0.106563 0.382834
236 1 0.398672 0.0811668 0.395173
223 2 0.464725 0.677914 0.300091
19 1 0.457745 0.665464 0.370029
6 2 0.4142 0.86698 0.416526
447 2 0.146929 0.399912 0.328378
334 1 0.223698 0.432234 0.301258
387 2 0.28564 0.404686 0.34802
153 2 0.0162071 0.416905 0.257596
552 1 0.460007 0.497063 0.367723
95 2 0.43139 0.506334 0.299875
183 1 0.363036 0.373104 0.370582
258 2 0.412288 0.340945 0.316686
413 2 0.404401 0.441381 0.400701
194 2 -0.000164026 0.497692 0.411881
365 2 0.14102 0.539219 0.421974
131 2 0.0768838 0.56093 0.322475
30 1 0.0602657 0.556483 0.391842
272 1 0.205743 0.568231 0.465804
502 2 0.268149 0.619528 0.43895
251 2 0.0415491 0.637733 0.414691
76 2 0.171581 0.657099 0.291331
505 1 0.144252 0.577097 0.278009
391 2 0.211028 0.518802 0.29147
142 2 0.458049 0.580736 0.392667
333 2 0.302795 0.666651 0.253266
205 2 0.294125 0.748607 0.475179
442 1 0.216477 0.791424 0.472182
424 1 0.095994 0.971 0.362786
170 2 0.154101 0.735231 0.446121
123 2 0.154067 0.907167 0.342291
407 1 0.237155 0.717219 0.275369
404 2 0.235639 0.776496 0.328879
519 2 0.22409 0.854373 0.426065
200 1 0.0679364 0.713103 0.44432
219 1 0.22925 0.860186 0.358815
211 2 0.0326989 0.926167 0.395533
508 2 0.306935 0.893267 0.3422
53 2 0.0252067 0.783022 0.417482
146 1 0.334952 0.677744 0.451711
133 2 0.378348 0.695675 0.391526
227 1 0.390423 0.911088 0.359697
135 2 0.440958 0.889689 0.303565
259 2 0.00219226 0.843653 0.30559
544 2 0.104999 0.0909877 0.506097
460 1 0.0608454 0.361921 -2.89527e-05
5 2 0.504597 0.703856 0.184327
296 2 0.366754 0.478851 -0.00917392
320 2 0.163758 0.223119 0.704773
299 1 0.214012 0.27103 0.65703
177 2 0.298236 0.24796 0.653583
180 2 0.171339 0.277801 0.594826
337 2 0.0756883 0.0739667 0.668498
7 2 0.319507 0.120605 0.574527
408 1 0.297589 0.0674448 0.626126
286 2 0.21083 0.0553688 0.622924
492 2 0.0517752 0.322839 0.535176
346 2 0.312122 0.0946879 0.692982
165 1 0.0176743 0.0794711 0.519511
425 1 0.14181 0.0172172 0.658423
60 2 0.365243 0.337853 0.727161
118 1 0.377188 0.268157 0.682669
559 1 0.458944 0.265031 0.560295
549 2 0.441164 0.276 0.633479
176 2 0.394814 0.198876 0.725216
521 2 0.476494 0.0469538 0.583434
356 2 0.484407 0.182155 0.541285
477 2 0.380568 0.286752 0.531022
370 1 0.352993 0.126308 0.750051
389 1 0.111905 0.34344 0.582432
87 2 0.159046 0.415443 0.563376
58 2 0.0658297 0.348466 0.644049
207 2 0.207643 0.355359 0.683938
501 2 0.30244 0.422183 0.578148
316 1 0.237561 0.421056 0.530155
373 2 0.163553 0.476572 0.739425
446 2 0.389525 0.642853 0.50242
429 2 0.238513 0.991469 0.943491
276 2 0.424297 0.443423 0.642211
289 1 0.361584 0.481607 0.600367
101 1 0.307162 0.121597 0.502669
38 1 0.497366 0.615568 0.849129
409 2 0.234304 0.636029 0.703603
550 1 0.101336 0.655047 0.560642
51 2 0.0492652 0.595572 0.59286
42 2 0.0558975 0.574303 0.707642
517 2 0.160842 0.612442 0.519076
102 1 0.317299 0.607667 0.68738
464 2 0.320335 0.550194 0.632174
452 1 0.00712712 0.559314 0.649483
547 2 0.406269 0.518058 0.54523
15 2 0.475209 0.612259 0.603226
191 1 0.451192 0.593111 0.53337
511 2 0.345287 0.567126 0.743617
555 2 0.453366 0.950167 0.954968
499 2 0.149235 0.707463 0.605765
98 2 0.289631 0.760545 0.609159
264 1 0.202831 0.779347 0.604246
268 2 0.180338 0.830159 0.660693
445 2 0.193314 0.812729 0.539171
69 2 0.0416973 0.829396 0.699726
172 1 0.1254 0.81643 0.716526
303 2 0.107883 0.950652 0.617905
119 1 0.0741339 0.931968 0.550516
294 2 0.0322626 0.852658 0.543353
518 2 0.0513194 0.7117 0.518021
439 2 0.133992 0.732865 0.737522
78 2 0.407136 0.948675 0.515919
295 2 0.367043 0.681332 0.67941
498 1 0.364696 0.760656 0.646092
506 1 0.496245 0.829496 0.584899
448 2 0.435059 0.77063 0.605936
213 2 0.46845 0.908044 0.610825
473 2 0.370252 0.819333 0.698384
304 2 0.485538 0.833569 0.512934
164 1 0.423112 0.976973 0.580853
540 2 0.346951 0.995175 0.612942
393 2 0.141252 0.957026 0.506543
277 2 0.0110908 -0.00518488 0.536446
481 2 0.173649 0.990249 0.722294
325 1 0.470031 0.998233 0.783981
487 1 0.115756 0.244036 0.762107
188 2 0.124602 0.330548 0.771565
196 2 0.0334978 0.214256 0.764214
73 1 0.194429 0.073472 0.948253
524 1 0.2317 0.174998 0.846628
44 2 0.153227 0.200284 0.815369
512 2 0.206562 0.106022 0.883029
563 2 0.258377 0.243125 0.887684
574 2 0.293652 0.148637 0.800452
40 2 0.107495 0.0660366 0.961424
66 1 0.0144015 0.0240397 0.817243
189 2 0.226447 0.1342 0.99036
248 2 0.00838493 0.109741 0.841114
154 1 0.0315358 0.09176 0.993635
343 1 0.334065 0.281801 0.904743
145 1 0.494505 0.0110733 0.918731
99 2 0.411408 0.0635605 0.77394
557 2 0.365231 0.315438 0.842893
382 2 0.389476 0.218482 0.92611
417 1 0.462095 0.173035 0.905466
148 2 0.483042 0.196962 0.839253
384 2 0.446176 0.0859462 0.910156
568 1 0.186508 0.390758 0.746514
484 2 0.241764 0.461572 0.934759
59 2 0.255797 0.383361 0.790423
529 2 0.0428091 0.368087 0.931161
182 1 0.299903 0.422235 0.977343
214 2 0.334102 0.352143 0.945237
572 2 0.0149742 0.414006 0.7352
381 1 0.345661 0.370574 0.791015
322 2 0.376007 0.454275 0.805431
237 1 0.397842 0.881734 0.942515
262 1 0.108869 0.541829 0.762454
281 1 0.0721435 0.60408 0.944497
159 2 0.273729 0.552467 0.848382
271 1 0.23505 0.544145 0.911548
545 2 0.149494 0.610713 0.790366
287 2 0.263872 0.60592 0.955017
500 2 0.14448 0.565797 0.91963
359 2 0.00374774 0.547037 0.937047
235 1 0.35142 0.540714 0.812312
225 2 0.414744 0.588715 0.844796
310 2 0.0948958 0.991572 0.819646
103 2 0.0522967 0.502593 0.809843
570 1 0.193444 0.675426 0.758119
493 2 0.147582 0.866461 0.77149
231 2 0.0889034 0.815181 0.917479
267 2 0.206072 0.739278 0.964996
143 2 0.234508 0.959608 0.824931
201 1 0.169731 0.818923 0.950092
192 1 0.260673 0.934684 0.890262
184 2 0.220787 0.857359 0.903495
308 1 0.284044 0.691539 0.961642
340 2 0.254548 0.71951 0.803047
169 2 0.0571944 0.679643 0.905741
514 1 0.0262243 0.759152 0.89603
451 1 0.161169 0.953314 0.785333
37 1 0.321353 0.750249 0.837657
195 2 0.327274 0.718211 0.903351
84 1 0.426108 0.837893 0.751531
32 2 0.435971 0.924836 0.758055
311 2 0.346115 0.912446 0.889961
566 2 0.448273 0.807837 0.936283
288 2 0.336955 0.863361 0.992679
368 2 0.384723 0.79561 0.808023
72 2 0.495542 0.451619 0.950286
126 2 0.495177 0.98311 0.851586
329 2 0.00197127 0.25235 0.868604
380 1 0.548702 0.249502 0.00386989
116 2 0.528989 0.1317 0.139772
290 1 0.605638 0.154448 0.111767
440 2 0.59382 0.194219 0.0508339
367 2 0.647987 0.210681 0.156987
140 2 0.658935 0.037283 0.222918
171 2 0.659473 0.0841834 0.10117
79 2 0.988474 0.281455 0.220856
175 2 0.887942 0.239128 0.0239333
426 1 0.819597 0.185423 0.0225626
12 1 0.719828 0.0447685 0.0622036
298 1 0.963895 0.261821 0.154412
390 1 0.707543 0.23401 0.207637
246 1 0.833908 0.161752 0.151149
401 2 0.835327 0.0895534 0.194182
179 2 0.91609 0.189225 0.148178
422 2 0.783473 0.226706 0.177004
67 2 0.808643 0.139392 0.0840274
507 1 0.889409 0.0408668 0.235778
242 2 0.695128 0.310588 0.241253
357 2 0.751484 0.240483 0.0127162
129 1 0.899678 0.320624 0.00491554
513 2 0.61473 0.416105 0.158555
278 2 0.504274 0.329717 0.135899
462 1 0.536615 0.380926 0.187155
455 2 0.53682 0.334642 0.249842
328 2 0.882057 0.471152 0.121486
388 1 0.695276 0.457089 0.138969
535 2 0.978977 0.35266 0.028732
336 1 0.844846 0.388844 0.112834
358 2 0.762757 0.392711 0.13921
374 2 0.842687 0.370587 0.0445712