LAMMPS (29 Sep 2021 - Update 2)
OMP_NUM_THREADS environment is not set. Defaulting to 1 thread. (src/comm.cpp:98)
  using 1 OpenMP thread(s) per MPI task
# Initialization
units metal
boundary p p p
atom_style full
neighbor 1.0 bin
neigh_modify delay 1

# System definition
read_data ../SilicaBlock/amorphousSiO.data
Reading data file ...
  orthogonal box = (1.2258943 1.2587857 -1.0292656) to (19.359683 19.326792 21.614843)
  2 by 1 by 2 MPI processor grid
  reading atoms ...
  576 atoms
  reading velocities ...
  576 velocities
Finding 1-2 1-3 1-4 neighbors ...
  special bond factors lj:    0        0        0       
  special bond factors coul:  0        0        0       
     0 = max # of 1-2 neighbors
     0 = max # of 1-3 neighbors
     0 = max # of 1-4 neighbors
     1 = max # of special neighbors
  special bonds CPU = 0.000 seconds
  read_data CPU = 0.008 seconds

# Simulation settings
pair_style vashishta
pair_coeff * * ../SilicaBlock/SiO.1990.vashishta Si O
Reading vashishta potential file ../SilicaBlock/SiO.1990.vashishta with DATE: 2015-10-14
dump dmp all atom 1000 dump.lammpstrj

# Run
fix nvt1 all nvt temp 300 300 0.1
timestep 0.001
thermo 1000
variable var loop 45
label loop
change_box all z scale 1.005 remap
Changing box ...
  orthogonal box = (1.2258943 1.2587857 -1.0858759) to (19.359683 19.326792 21.671454)
run 2000
Neighbor list info ...
  update every 1 steps, delay 1 steps, check yes
  max neighbors/atom: 2000, page size: 100000
  master list distance cutoff = 11
  ghost atom cutoff = 11
  binsize = 5.5, bins = 4 4 5
  1 neighbor lists, perpetual/occasional/extra = 1 0 0
  (1) pair vashishta, perpetual
      attributes: full, newton on
      pair build: full/bin
      stencil: full/bin/3d
      bin: standard
Per MPI rank memory allocation (min/avg/max) = 7.235 | 7.236 | 7.237 Mbytes
Step Temp E_pair E_mol TotEng Press 
       0    318.82966   -5179.2796            0   -5155.5827   -13368.068 
    1000    301.11903   -5180.4497            0   -5158.0691   -1878.3605 
    2000    296.85504   -5178.3733            0   -5156.3097   -11221.418 
Loop time of 3.93087 on 4 procs for 2000 steps with 576 atoms

Performance: 43.960 ns/day, 0.546 hours/ns, 508.793 timesteps/s
98.9% CPU use with 4 MPI tasks x 1 OpenMP threads

MPI task timing breakdown:
Section |  min time  |  avg time  |  max time  |%varavg| %total
---------------------------------------------------------------
Pair    | 3.5148     | 3.6151     | 3.759      |   4.9 | 91.97
Bond    | 0.00012871 | 0.00014068 | 0.0001636  |   0.0 |  0.00
Neigh   | 0.028178   | 0.028715   | 0.029367   |   0.3 |  0.73
Comm    | 0.12706    | 0.27118    | 0.37257    |  18.0 |  6.90
Output  | 0.00035249 | 0.00035815 | 0.00037336 |   0.0 |  0.01
Modify  | 0.0071219  | 0.0076114  | 0.0080589  |   0.5 |  0.19
Other   |            | 0.007783   |            |       |  0.20

Nlocal:        144.000 ave         145 max         143 min
Histogram: 1 0 0 0 0 2 0 0 0 1
Nghost:        3054.00 ave        3081 max        3012 min
Histogram: 1 0 0 0 0 0 1 1 0 1
Neighs:         0.00000 ave           0 max           0 min
Histogram: 4 0 0 0 0 0 0 0 0 0
FullNghs:      61800.5 ave       62326 max       61451 min
Histogram: 1 0 1 1 0 0 0 0 0 1

Total # of neighbors = 247202
Ave neighs/atom = 429.17014
Ave special neighs/atom = 0.0000000
Neighbor list builds = 22
Dangerous builds = 0
next var
jump input.lammps loop
change_box all z scale 1.005 remap
Changing box ...
  orthogonal box = (1.2258943 1.2587857 -1.1427692) to (19.359683 19.326792 21.728347)
run 2000
Per MPI rank memory allocation (min/avg/max) = 7.236 | 7.237 | 7.237 Mbytes
Step Temp E_pair E_mol TotEng Press 
    2000    296.85504   -5177.7895            0   -5155.7258   -24112.769 
    3000    287.60696   -5178.4599            0   -5157.0837   -11514.789 
    4000    309.76218   -5178.8792            0   -5155.8562   -9067.4866 
Loop time of 4.18994 on 4 procs for 2000 steps with 576 atoms

Performance: 41.242 ns/day, 0.582 hours/ns, 477.334 timesteps/s
99.1% CPU use with 4 MPI tasks x 1 OpenMP threads

MPI task timing breakdown:
Section |  min time  |  avg time  |  max time  |%varavg| %total
---------------------------------------------------------------
Pair    | 3.5747     | 3.7495     | 3.9103     |   6.2 | 89.49
Bond    | 0.00018358 | 0.00020209 | 0.00022414 |   0.0 |  0.00
Neigh   | 0.027666   | 0.028431   | 0.029405   |   0.4 |  0.68
Comm    | 0.22874    | 0.39013    | 0.56608    |  19.3 |  9.31
Output  | 0.0003553  | 0.00036188 | 0.0003783  |   0.0 |  0.01
Modify  | 0.011194   | 0.011512   | 0.011746   |   0.2 |  0.27
Other   |            | 0.009822   |            |       |  0.23

Nlocal:        144.000 ave         147 max         139 min
Histogram: 1 0 0 0 0 0 1 0 1 1
Nghost:        3066.75 ave        3085 max        3039 min
Histogram: 1 0 0 0 0 0 1 1 0 1
Neighs:         0.00000 ave           0 max           0 min
Histogram: 4 0 0 0 0 0 0 0 0 0
FullNghs:      61487.0 ave       62817 max       59390 min
Histogram: 1 0 0 0 0 1 0 0 1 1

Total # of neighbors = 245948
Ave neighs/atom = 426.99306
Ave special neighs/atom = 0.0000000
Neighbor list builds = 21
Dangerous builds = 0
next var
jump input.lammps loop
change_box all z scale 1.005 remap
Changing box ...
  orthogonal box = (1.2258943 1.2587857 -1.1999470) to (19.359683 19.326792 21.785525)
run 2000
Per MPI rank memory allocation (min/avg/max) = 7.236 | 7.237 | 7.237 Mbytes
Step Temp E_pair E_mol TotEng Press 
    4000    309.76218   -5178.1882            0   -5155.1653   -21936.979 
    5000    301.32239   -5177.3113            0   -5154.9156   -9553.6467 
    6000     292.2221   -5178.2569            0   -5156.5377   -13062.675 
Loop time of 4.7236 on 4 procs for 2000 steps with 576 atoms

Performance: 36.582 ns/day, 0.656 hours/ns, 423.405 timesteps/s
99.2% CPU use with 4 MPI tasks x 1 OpenMP threads

MPI task timing breakdown:
Section |  min time  |  avg time  |  max time  |%varavg| %total
---------------------------------------------------------------
Pair    | 3.873      | 4.0798     | 4.4859     |  11.9 | 86.37
Bond    | 0.00019495 | 0.0002072  | 0.00022752 |   0.0 |  0.00
Neigh   | 0.030363   | 0.030965   | 0.031704   |   0.3 |  0.66
Comm    | 0.18274    | 0.5892     | 0.79719    |  31.2 | 12.47
Output  | 0.00042672 | 0.00043381 | 0.00045421 |   0.0 |  0.01
Modify  | 0.011981   | 0.012556   | 0.012961   |   0.3 |  0.27
Other   |            | 0.01043    |            |       |  0.22

Nlocal:        144.000 ave         146 max         142 min
Histogram: 1 0 1 0 0 0 0 1 0 1
Nghost:        3030.50 ave        3058 max        2987 min
Histogram: 1 0 0 0 0 0 0 2 0 1
Neighs:         0.00000 ave           0 max           0 min
Histogram: 4 0 0 0 0 0 0 0 0 0
FullNghs:      61175.5 ave       62050 max       60323 min
Histogram: 1 0 1 0 0 0 0 1 0 1

Total # of neighbors = 244702
Ave neighs/atom = 424.82986
Ave special neighs/atom = 0.0000000
Neighbor list builds = 22
Dangerous builds = 0
next var
jump input.lammps loop
change_box all z scale 1.005 remap
Changing box ...
  orthogonal box = (1.2258943 1.2587857 -1.2574107) to (19.359683 19.326792 21.842988)
run 2000
Per MPI rank memory allocation (min/avg/max) = 7.236 | 7.237 | 7.237 Mbytes
Step Temp E_pair E_mol TotEng Press 
    6000     292.2221   -5177.2931            0   -5155.5738   -25634.086 
    7000    306.32541   -5176.4106            0   -5153.6431   -14987.114 
    8000    304.52505   -5178.5852            0   -5155.9515   -12714.514 
Loop time of 4.15822 on 4 procs for 2000 steps with 576 atoms

Performance: 41.556 ns/day, 0.578 hours/ns, 480.975 timesteps/s
99.3% CPU use with 4 MPI tasks x 1 OpenMP threads

MPI task timing breakdown:
Section |  min time  |  avg time  |  max time  |%varavg| %total
---------------------------------------------------------------
Pair    | 3.8471     | 3.931      | 4.0088     |   3.3 | 94.54
Bond    | 0.00014206 | 0.0001528  | 0.00017168 |   0.0 |  0.00
Neigh   | 0.032543   | 0.033071   | 0.03352    |   0.2 |  0.80
Comm    | 0.099965   | 0.17835    | 0.26271    |  15.4 |  4.29
Output  | 0.00038451 | 0.00039102 | 0.00040699 |   0.0 |  0.01
Modify  | 0.0071307  | 0.0072878  | 0.0074731  |   0.2 |  0.18
Other   |            | 0.007949   |            |       |  0.19

Nlocal:        144.000 ave         149 max         140 min
Histogram: 1 1 0 0 0 0 1 0 0 1
Nghost:        3036.00 ave        3064 max        2991 min
Histogram: 1 0 0 0 0 0 1 0 1 1
Neighs:         0.00000 ave           0 max           0 min
Histogram: 4 0 0 0 0 0 0 0 0 0
FullNghs:      60863.0 ave       63069 max       59330 min
Histogram: 2 0 0 0 0 0 1 0 0 1

Total # of neighbors = 243452
Ave neighs/atom = 422.65972
Ave special neighs/atom = 0.0000000
Neighbor list builds = 23
Dangerous builds = 0
next var
jump input.lammps loop
change_box all z scale 1.005 remap
Changing box ...
  orthogonal box = (1.2258943 1.2587857 -1.3151617) to (19.359683 19.326792 21.900739)
run 2000
Per MPI rank memory allocation (min/avg/max) = 7.236 | 7.237 | 7.237 Mbytes
Step Temp E_pair E_mol TotEng Press 
    8000    304.52505   -5177.6674            0   -5155.0337   -25275.085 
    9000    284.31739   -5175.5327            0    -5154.401   -18223.797 
   10000    289.70888   -5177.0876            0   -5155.5551   -19775.422 
Loop time of 4.24307 on 4 procs for 2000 steps with 576 atoms

Performance: 40.725 ns/day, 0.589 hours/ns, 471.357 timesteps/s
99.2% CPU use with 4 MPI tasks x 1 OpenMP threads

MPI task timing breakdown:
Section |  min time  |  avg time  |  max time  |%varavg| %total
---------------------------------------------------------------
Pair    | 3.9507     | 4.021      | 4.0763     |   2.8 | 94.77
Bond    | 0.00013865 | 0.00015624 | 0.00018095 |   0.0 |  0.00
Neigh   | 0.028924   | 0.029294   | 0.029605   |   0.2 |  0.69
Comm    | 0.1203     | 0.1764     | 0.24741    |  13.2 |  4.16
Output  | 0.00039403 | 0.00040041 | 0.00041707 |   0.0 |  0.01
Modify  | 0.0072127  | 0.007665   | 0.0080578  |   0.4 |  0.18
Other   |            | 0.008194   |            |       |  0.19

Nlocal:        144.000 ave         147 max         141 min
Histogram: 1 0 0 1 0 0 1 0 0 1
Nghost:        3022.50 ave        3057 max        2970 min
Histogram: 1 0 0 0 0 0 1 1 0 1
Neighs:         0.00000 ave           0 max           0 min
Histogram: 4 0 0 0 0 0 0 0 0 0
FullNghs:      60574.5 ave       61891 max       59443 min
Histogram: 1 0 1 0 0 0 1 0 0 1

Total # of neighbors = 242298
Ave neighs/atom = 420.65625
Ave special neighs/atom = 0.0000000
Neighbor list builds = 20
Dangerous builds = 0
next var
jump input.lammps loop
change_box all z scale 1.005 remap
Changing box ...
  orthogonal box = (1.2258943 1.2587857 -1.3732015) to (19.359683 19.326792 21.958779)
run 2000
Per MPI rank memory allocation (min/avg/max) = 7.236 | 7.237 | 7.237 Mbytes
Step Temp E_pair E_mol TotEng Press 
   10000    289.70888   -5176.0029            0   -5154.4704   -32185.182 
   11000    288.27574   -5174.3351            0   -5152.9092   -23538.233 
   12000     289.5032    -5175.853            0   -5154.3358    -26011.75 
Loop time of 4.57674 on 4 procs for 2000 steps with 576 atoms

Performance: 37.756 ns/day, 0.636 hours/ns, 436.993 timesteps/s
99.4% CPU use with 4 MPI tasks x 1 OpenMP threads

MPI task timing breakdown:
Section |  min time  |  avg time  |  max time  |%varavg| %total
---------------------------------------------------------------
Pair    | 4.0191     | 4.1715     | 4.3756     |   6.7 | 91.15
Bond    | 0.00015113 | 0.00016834 | 0.00018889 |   0.0 |  0.00
Neigh   | 0.03403    | 0.034521   | 0.035122   |   0.3 |  0.75
Comm    | 0.14828    | 0.35243    | 0.50587    |  23.2 |  7.70
Output  | 0.00043603 | 0.00044245 | 0.00045854 |   0.0 |  0.01
Modify  | 0.0083344  | 0.0088351  | 0.0092459  |   0.4 |  0.19
Other   |            | 0.008809   |            |       |  0.19

Nlocal:        144.000 ave         148 max         140 min
Histogram: 1 0 1 0 0 0 0 1 0 1
Nghost:        3014.25 ave        3046 max        2962 min
Histogram: 1 0 0 0 0 0 1 0 1 1
Neighs:         0.00000 ave           0 max           0 min
Histogram: 4 0 0 0 0 0 0 0 0 0
FullNghs:      60242.5 ave       61928 max       58622 min
Histogram: 1 0 1 0 0 0 0 1 0 1

Total # of neighbors = 240970
Ave neighs/atom = 418.35069
Ave special neighs/atom = 0.0000000
Neighbor list builds = 23
Dangerous builds = 0
next var
jump input.lammps loop
change_box all z scale 1.005 remap
Changing box ...
  orthogonal box = (1.2258943 1.2587857 -1.4315314) to (19.359683 19.326792 22.017109)
run 2000
Per MPI rank memory allocation (min/avg/max) = 7.236 | 7.237 | 7.237 Mbytes
Step Temp E_pair E_mol TotEng Press 
   12000     289.5032   -5174.4368            0   -5152.9196    -38019.86 
   13000    298.98392   -5173.3132            0   -5151.0913   -25213.227 
   14000    296.60983   -5173.8996            0   -5151.8542   -30804.371 
Loop time of 6.2751 on 4 procs for 2000 steps with 576 atoms

Performance: 27.537 ns/day, 0.872 hours/ns, 318.720 timesteps/s
99.3% CPU use with 4 MPI tasks x 1 OpenMP threads

MPI task timing breakdown:
Section |  min time  |  avg time  |  max time  |%varavg| %total
---------------------------------------------------------------
Pair    | 4.9329     | 5.2892     | 5.7535     |  13.4 | 84.29
Bond    | 0.00032994 | 0.00034978 | 0.0003655  |   0.0 |  0.01
Neigh   | 0.037853   | 0.040394   | 0.042611   |   1.0 |  0.64
Comm    | 0.44128    | 0.90805    | 1.2658     |  32.6 | 14.47
Output  | 0.0005673  | 0.00057427 | 0.00059292 |   0.0 |  0.01
Modify  | 0.020677   | 0.02108    | 0.021479   |   0.2 |  0.34
Other   |            | 0.01544    |            |       |  0.25

Nlocal:        144.000 ave         148 max         140 min
Histogram: 1 1 0 0 0 0 0 0 1 1
Nghost:        3021.25 ave        3051 max        2964 min
Histogram: 1 0 0 0 0 0 0 1 0 2
Neighs:         0.00000 ave           0 max           0 min
Histogram: 4 0 0 0 0 0 0 0 0 0
FullNghs:      59949.0 ave       61580 max       58324 min
Histogram: 1 1 0 0 0 0 0 0 1 1

Total # of neighbors = 239796
Ave neighs/atom = 416.31250
Ave special neighs/atom = 0.0000000
Neighbor list builds = 22
Dangerous builds = 0
next var
jump input.lammps loop
change_box all z scale 1.005 remap
Changing box ...
  orthogonal box = (1.2258943 1.2587857 -1.4901530) to (19.359683 19.326792 22.075731)
run 2000
Per MPI rank memory allocation (min/avg/max) = 7.236 | 7.237 | 7.237 Mbytes
Step Temp E_pair E_mol TotEng Press 
   14000    296.60983   -5172.3193            0   -5150.2739   -42623.665 
   15000    307.24872   -5174.1358            0   -5151.2997   -31692.185 
   16000    318.17324   -5171.3702            0   -5147.7221   -31668.353 
Loop time of 6.26371 on 4 procs for 2000 steps with 576 atoms

Performance: 27.587 ns/day, 0.870 hours/ns, 319.300 timesteps/s
99.0% CPU use with 4 MPI tasks x 1 OpenMP threads

MPI task timing breakdown:
Section |  min time  |  avg time  |  max time  |%varavg| %total
---------------------------------------------------------------
Pair    | 5.0067     | 5.2276     | 5.7842     |  14.1 | 83.46
Bond    | 0.0003273  | 0.00034284 | 0.00037096 |   0.0 |  0.01
Neigh   | 0.042374   | 0.04308    | 0.044522   |   0.4 |  0.69
Comm    | 0.3988     | 0.95654    | 1.1775     |  33.1 | 15.27
Output  | 0.00055787 | 0.00056595 | 0.00058591 |   0.0 |  0.01
Modify  | 0.019865   | 0.020569   | 0.021235   |   0.4 |  0.33
Other   |            | 0.01503    |            |       |  0.24

Nlocal:        144.000 ave         145 max         143 min
Histogram: 1 0 0 0 0 2 0 0 0 1
Nghost:        3001.50 ave        3028 max        2962 min
Histogram: 1 0 0 0 1 0 0 0 0 2
Neighs:         0.00000 ave           0 max           0 min
Histogram: 4 0 0 0 0 0 0 0 0 0
FullNghs:      59683.5 ave       60159 max       59211 min
Histogram: 1 0 0 0 1 1 0 0 0 1

Total # of neighbors = 238734
Ave neighs/atom = 414.46875
Ave special neighs/atom = 0.0000000
Neighbor list builds = 23
Dangerous builds = 0
next var
jump input.lammps loop
change_box all z scale 1.005 remap
Changing box ...
  orthogonal box = (1.2258943 1.2587857 -1.5490677) to (19.359683 19.326792 22.134645)
run 2000
Per MPI rank memory allocation (min/avg/max) = 7.236 | 7.237 | 7.237 Mbytes
Step Temp E_pair E_mol TotEng Press 
   16000    318.17324   -5169.6843            0   -5146.0362   -43446.731 
   17000    291.53032   -5171.5307            0   -5149.8628    -32581.53 
   18000     318.9976   -5170.4407            0   -5146.7314   -33898.552 
Loop time of 5.7182 on 4 procs for 2000 steps with 576 atoms

Performance: 30.219 ns/day, 0.794 hours/ns, 349.760 timesteps/s
99.4% CPU use with 4 MPI tasks x 1 OpenMP threads

MPI task timing breakdown:
Section |  min time  |  avg time  |  max time  |%varavg| %total
---------------------------------------------------------------
Pair    | 4.5335     | 4.8094     | 5.4411     |  16.9 | 84.11
Bond    | 0.00021369 | 0.00023402 | 0.00026247 |   0.0 |  0.00
Neigh   | 0.042892   | 0.044482   | 0.046105   |   0.6 |  0.78
Comm    | 0.20547    | 0.83872    | 1.1164     |  40.5 | 14.67
Output  | 0.00056831 | 0.00057657 | 0.00059759 |   0.0 |  0.01
Modify  | 0.012832   | 0.013156   | 0.013461   |   0.2 |  0.23
Other   |            | 0.01159    |            |       |  0.20

Nlocal:        144.000 ave         148 max         140 min
Histogram: 1 0 0 1 0 0 1 0 0 1
Nghost:        3002.75 ave        3038 max        2950 min
Histogram: 1 0 0 0 0 1 0 0 1 1
Neighs:         0.00000 ave           0 max           0 min
Histogram: 4 0 0 0 0 0 0 0 0 0
FullNghs:      59361.0 ave       61097 max       57801 min
Histogram: 1 0 0 1 0 1 0 0 0 1

Total # of neighbors = 237444
Ave neighs/atom = 412.22917
Ave special neighs/atom = 0.0000000
Neighbor list builds = 26
Dangerous builds = 0
next var
jump input.lammps loop
change_box all z scale 1.005 remap
Changing box ...
  orthogonal box = (1.2258943 1.2587857 -1.6082770) to (19.359683 19.326792 22.193855)
run 2000
Per MPI rank memory allocation (min/avg/max) = 7.236 | 7.237 | 7.237 Mbytes
Step Temp E_pair E_mol TotEng Press 
   18000     318.9976   -5168.5435            0   -5144.8342   -45412.513 
   19000    296.18684   -5170.7079            0    -5148.694   -40390.947 
   20000    305.82207    -5169.007            0   -5146.2769   -40126.437 
Loop time of 5.47236 on 4 procs for 2000 steps with 576 atoms

Performance: 31.577 ns/day, 0.760 hours/ns, 365.473 timesteps/s
99.4% CPU use with 4 MPI tasks x 1 OpenMP threads

MPI task timing breakdown:
Section |  min time  |  avg time  |  max time  |%varavg| %total
---------------------------------------------------------------
Pair    | 4.5552     | 4.7864     | 5.1713     |  10.6 | 87.47
Bond    | 0.00021327 | 0.00023532 | 0.00024714 |   0.0 |  0.00
Neigh   | 0.039665   | 0.040526   | 0.041498   |   0.4 |  0.74
Comm    | 0.23344    | 0.61929    | 0.85088    |  29.6 | 11.32
Output  | 0.00060474 | 0.00061265 | 0.00063406 |   0.0 |  0.01
Modify  | 0.01319    | 0.013574   | 0.013947   |   0.2 |  0.25
Other   |            | 0.0117     |            |       |  0.21

Nlocal:        144.000 ave         146 max         142 min
Histogram: 2 0 0 0 0 0 0 0 0 2
Nghost:        2977.00 ave        2995 max        2936 min
Histogram: 1 0 0 0 0 0 0 0 1 2
Neighs:         0.00000 ave           0 max           0 min
Histogram: 4 0 0 0 0 0 0 0 0 0
FullNghs:      59076.0 ave       59918 max       58234 min
Histogram: 2 0 0 0 0 0 0 0 0 2

Total # of neighbors = 236304
Ave neighs/atom = 410.25000
Ave special neighs/atom = 0.0000000
Neighbor list builds = 24
Dangerous builds = 0
next var
jump input.lammps loop
change_box all z scale 1.005 remap
Changing box ...
  orthogonal box = (1.2258943 1.2587857 -1.6677823) to (19.359683 19.326792 22.253360)
run 2000
Per MPI rank memory allocation (min/avg/max) = 7.236 | 7.237 | 7.237 Mbytes
Step Temp E_pair E_mol TotEng Press 
   20000    305.82207   -5167.1306            0   -5144.4005   -51571.491 
   21000    295.23551   -5169.2776            0   -5147.3343   -41955.258 
   22000     305.3779   -5167.4197            0   -5144.7226   -41333.943 
Loop time of 6.05822 on 4 procs for 2000 steps with 576 atoms

Performance: 28.523 ns/day, 0.841 hours/ns, 330.130 timesteps/s
99.3% CPU use with 4 MPI tasks x 1 OpenMP threads

MPI task timing breakdown:
Section |  min time  |  avg time  |  max time  |%varavg| %total
---------------------------------------------------------------
Pair    | 4.8629     | 5.1133     | 5.6414     |  13.9 | 84.40
Bond    | 0.00028792 | 0.00030457 | 0.00032598 |   0.0 |  0.01
Neigh   | 0.045062   | 0.045814   | 0.046582   |   0.3 |  0.76
Comm    | 0.33744    | 0.86638    | 1.1173     |  33.9 | 14.30
Output  | 0.00051618 | 0.0005246  | 0.00054465 |   0.0 |  0.01
Modify  | 0.017694   | 0.018018   | 0.018219   |   0.1 |  0.30
Other   |            | 0.01384    |            |       |  0.23

Nlocal:        144.000 ave         150 max         138 min
Histogram: 1 0 0 1 0 0 1 0 0 1
Nghost:        2979.25 ave        3013 max        2921 min
Histogram: 1 0 0 0 0 0 1 0 0 2
Neighs:         0.00000 ave           0 max           0 min
Histogram: 4 0 0 0 0 0 0 0 0 0
FullNghs:      58780.5 ave       61290 max       56306 min
Histogram: 1 0 0 1 0 0 1 0 0 1

Total # of neighbors = 235122
Ave neighs/atom = 408.19792
Ave special neighs/atom = 0.0000000
Neighbor list builds = 25
Dangerous builds = 0
next var
jump input.lammps loop
change_box all z scale 1.005 remap
Changing box ...
  orthogonal box = (1.2258943 1.2587857 -1.7275852) to (19.359683 19.326792 22.313163)
run 2000
Per MPI rank memory allocation (min/avg/max) = 7.236 | 7.237 | 7.237 Mbytes
Step Temp E_pair E_mol TotEng Press 
   22000     305.3779    -5165.373            0   -5142.6759   -52548.484 
   23000    307.85851   -5167.1399            0   -5144.2585   -45848.619 
   24000    307.31556   -5165.6501            0    -5142.809   -48620.238 
Loop time of 5.27764 on 4 procs for 2000 steps with 576 atoms

Performance: 32.742 ns/day, 0.733 hours/ns, 378.957 timesteps/s
99.2% CPU use with 4 MPI tasks x 1 OpenMP threads

MPI task timing breakdown:
Section |  min time  |  avg time  |  max time  |%varavg| %total
---------------------------------------------------------------
Pair    | 4.6255     | 4.727      | 4.8137     |   3.6 | 89.57
Bond    | 0.00025745 | 0.00027759 | 0.00029526 |   0.0 |  0.01
Neigh   | 0.043042   | 0.044881   | 0.047291   |   0.8 |  0.85
Comm    | 0.38822    | 0.47576    | 0.57862    |  11.6 |  9.01
Output  | 0.00052219 | 0.00052869 | 0.0005461  |   0.0 |  0.01
Modify  | 0.016114   | 0.016439   | 0.016783   |   0.2 |  0.31
Other   |            | 0.01277    |            |       |  0.24

Nlocal:        144.000 ave         147 max         141 min
Histogram: 1 1 0 0 0 0 0 0 1 1
Nghost:        2970.75 ave        2991 max        2923 min
Histogram: 1 0 0 0 0 0 0 0 1 2
Neighs:         0.00000 ave           0 max           0 min
Histogram: 4 0 0 0 0 0 0 0 0 0
FullNghs:      58483.0 ave       59815 max       57331 min
Histogram: 1 1 0 0 0 0 0 1 0 1

Total # of neighbors = 233932
Ave neighs/atom = 406.13194
Ave special neighs/atom = 0.0000000
Neighbor list builds = 25
Dangerous builds = 0
next var
jump input.lammps loop
change_box all z scale 1.005 remap
Changing box ...
  orthogonal box = (1.2258943 1.2587857 -1.7876871) to (19.359683 19.326792 22.373265)
run 2000
Per MPI rank memory allocation (min/avg/max) = 7.236 | 7.237 | 7.237 Mbytes
Step Temp E_pair E_mol TotEng Press 
   24000    307.31556   -5163.3586            0   -5140.5175   -59700.326 
   25000    303.41662   -5164.0833            0    -5141.532   -52782.593 
   26000    302.43825   -5165.5876            0    -5143.109   -51724.647 
Loop time of 5.70422 on 4 procs for 2000 steps with 576 atoms

Performance: 30.293 ns/day, 0.792 hours/ns, 350.618 timesteps/s
99.3% CPU use with 4 MPI tasks x 1 OpenMP threads

MPI task timing breakdown:
Section |  min time  |  avg time  |  max time  |%varavg| %total
---------------------------------------------------------------
Pair    | 4.7811     | 4.9331     | 5.2881     |   9.4 | 86.48
Bond    | 0.00027822 | 0.00029261 | 0.00030562 |   0.0 |  0.01
Neigh   | 0.037429   | 0.038514   | 0.039993   |   0.5 |  0.68
Comm    | 0.34629    | 0.7016     | 0.85416    |  24.8 | 12.30
Output  | 0.00056503 | 0.00057494 | 0.00060249 |   0.0 |  0.01
Modify  | 0.016695   | 0.016963   | 0.017141   |   0.1 |  0.30
Other   |            | 0.0132     |            |       |  0.23

Nlocal:        144.000 ave         148 max         141 min
Histogram: 1 0 1 0 1 0 0 0 0 1
Nghost:        2956.00 ave        2984 max        2902 min
Histogram: 1 0 0 0 0 0 0 1 1 1
Neighs:         0.00000 ave           0 max           0 min
Histogram: 4 0 0 0 0 0 0 0 0 0
FullNghs:      58164.0 ave       59937 max       56877 min
Histogram: 1 0 0 2 0 0 0 0 0 1

Total # of neighbors = 232656
Ave neighs/atom = 403.91667
Ave special neighs/atom = 0.0000000
Neighbor list builds = 21
Dangerous builds = 0
next var
jump input.lammps loop
change_box all z scale 1.005 remap
Changing box ...
  orthogonal box = (1.2258943 1.2587857 -1.8480894) to (19.359683 19.326792 22.433667)
run 2000
Per MPI rank memory allocation (min/avg/max) = 7.236 | 7.237 | 7.237 Mbytes
Step Temp E_pair E_mol TotEng Press 
   26000    302.43825   -5163.0233            0   -5140.5447   -62542.241 
   27000    307.53567   -5162.0616            0   -5139.2041   -51902.644 
   28000    290.24941   -5161.8703            0   -5140.2977   -45200.135 
Loop time of 6.76317 on 4 procs for 2000 steps with 576 atoms

Performance: 25.550 ns/day, 0.939 hours/ns, 295.719 timesteps/s
98.7% CPU use with 4 MPI tasks x 1 OpenMP threads

MPI task timing breakdown:
Section |  min time  |  avg time  |  max time  |%varavg| %total
---------------------------------------------------------------
Pair    | 5.2078     | 5.4318     | 5.7885     |   9.4 | 80.31
Bond    | 0.00036234 | 0.00036991 | 0.00037477 |   0.0 |  0.01
Neigh   | 0.043131   | 0.044195   | 0.045472   |   0.4 |  0.65
Comm    | 0.87969    | 1.2409     | 1.4702     |  20.0 | 18.35
Output  | 0.00043487 | 0.00044132 | 0.00045772 |   0.0 |  0.01
Modify  | 0.023369   | 0.029068   | 0.034737   |   3.3 |  0.43
Other   |            | 0.01638    |            |       |  0.24

Nlocal:        144.000 ave         150 max         141 min
Histogram: 2 0 0 1 0 0 0 0 0 1
Nghost:        2945.50 ave        2968 max        2894 min
Histogram: 1 0 0 0 0 0 0 0 1 2
Neighs:         0.00000 ave           0 max           0 min
Histogram: 4 0 0 0 0 0 0 0 0 0
FullNghs:      57943.0 ave       60544 max       56606 min
Histogram: 2 0 1 0 0 0 0 0 0 1

Total # of neighbors = 231772
Ave neighs/atom = 402.38194
Ave special neighs/atom = 0.0000000
Neighbor list builds = 23
Dangerous builds = 0
next var
jump input.lammps loop
change_box all z scale 1.005 remap
Changing box ...
  orthogonal box = (1.2258943 1.2587857 -1.9087938) to (19.359683 19.326792 22.494372)
run 2000
Per MPI rank memory allocation (min/avg/max) = 7.236 | 7.237 | 7.237 Mbytes
Step Temp E_pair E_mol TotEng Press 
   28000    290.24941   -5159.4964            0   -5137.9237   -56280.242 
   29000    313.23028   -5158.9666            0   -5135.6858   -56036.835 
   30000    295.21289    -5159.357            0   -5137.4154   -58866.033 
Loop time of 5.71761 on 4 procs for 2000 steps with 576 atoms

Performance: 30.222 ns/day, 0.794 hours/ns, 349.796 timesteps/s
99.6% CPU use with 4 MPI tasks x 1 OpenMP threads

MPI task timing breakdown:
Section |  min time  |  avg time  |  max time  |%varavg| %total
---------------------------------------------------------------
Pair    | 4.6471     | 4.8497     | 5.1837     |   9.6 | 84.82
Bond    | 0.00027242 | 0.00029542 | 0.00032778 |   0.0 |  0.01
Neigh   | 0.041356   | 0.042426   | 0.044235   |   0.5 |  0.74
Comm    | 0.45839    | 0.79216    | 0.99528    |  23.9 | 13.85
Output  | 0.00049648 | 0.00050415 | 0.00052447 |   0.0 |  0.01
Modify  | 0.018277   | 0.01849    | 0.018719   |   0.1 |  0.32
Other   |            | 0.01401    |            |       |  0.25

Nlocal:        144.000 ave         148 max         138 min
Histogram: 1 0 0 0 0 0 1 0 1 1
Nghost:        2944.50 ave        2960 max        2907 min
Histogram: 1 0 0 0 0 0 0 0 0 3
Neighs:         0.00000 ave           0 max           0 min
Histogram: 4 0 0 0 0 0 0 0 0 0
FullNghs:      57601.5 ave       59290 max       55217 min
Histogram: 1 0 0 0 0 1 0 1 0 1

Total # of neighbors = 230406
Ave neighs/atom = 400.01042
Ave special neighs/atom = 0.0000000
Neighbor list builds = 24
Dangerous builds = 0
next var
jump input.lammps loop
change_box all z scale 1.005 remap
Changing box ...
  orthogonal box = (1.2258943 1.2587857 -1.9698017) to (19.359683 19.326792 22.555379)
run 2000
Per MPI rank memory allocation (min/avg/max) = 7.236 | 7.237 | 7.237 Mbytes
Step Temp E_pair E_mol TotEng Press 
   30000    295.21289   -5156.5109            0   -5134.5693   -69387.692 
   31000    305.30171   -5155.1992            0   -5132.5078   -59136.213 
   32000    305.23004   -5157.2015            0   -5134.5154   -59487.991 
Loop time of 5.07646 on 4 procs for 2000 steps with 576 atoms

Performance: 34.039 ns/day, 0.705 hours/ns, 393.975 timesteps/s
99.2% CPU use with 4 MPI tasks x 1 OpenMP threads

MPI task timing breakdown:
Section |  min time  |  avg time  |  max time  |%varavg| %total
---------------------------------------------------------------
Pair    | 4.5034     | 4.5634     | 4.6839     |   3.4 | 89.89
Bond    | 0.00023581 | 0.00025258 | 0.00026861 |   0.0 |  0.00
Neigh   | 0.03601    | 0.036424   | 0.037114   |   0.2 |  0.72
Comm    | 0.32702    | 0.44772    | 0.50878    |  10.8 |  8.82
Output  | 0.00054247 | 0.00054929 | 0.00056775 |   0.0 |  0.01
Modify  | 0.015169   | 0.015845   | 0.016486   |   0.4 |  0.31
Other   |            | 0.01231    |            |       |  0.24

Nlocal:        144.000 ave         150 max         142 min
Histogram: 3 0 0 0 0 0 0 0 0 1
Nghost:        2923.50 ave        2948 max        2872 min
Histogram: 1 0 0 0 0 0 0 1 0 2
Neighs:         0.00000 ave           0 max           0 min
Histogram: 4 0 0 0 0 0 0 0 0 0
FullNghs:      57290.0 ave       59852 max       56253 min
Histogram: 3 0 0 0 0 0 0 0 0 1

Total # of neighbors = 229160
Ave neighs/atom = 397.84722
Ave special neighs/atom = 0.0000000
Neighbor list builds = 21
Dangerous builds = 0
next var
jump input.lammps loop
change_box all z scale 1.005 remap
Changing box ...
  orthogonal box = (1.2258943 1.2587857 -2.0311147) to (19.359683 19.326792 22.616692)
run 2000
Per MPI rank memory allocation (min/avg/max) = 7.236 | 7.237 | 7.237 Mbytes
Step Temp E_pair E_mol TotEng Press 
   32000    305.23004   -5154.2511            0    -5131.565   -69820.471 
   33000    304.65696   -5153.4513            0   -5130.8078   -60697.648 
   34000    327.88042    -5153.985            0   -5129.6155   -59076.568 
Loop time of 5.3357 on 4 procs for 2000 steps with 576 atoms

Performance: 32.386 ns/day, 0.741 hours/ns, 374.834 timesteps/s
99.0% CPU use with 4 MPI tasks x 1 OpenMP threads

MPI task timing breakdown:
Section |  min time  |  avg time  |  max time  |%varavg| %total
---------------------------------------------------------------
Pair    | 4.4809     | 4.6326     | 4.8092     |   6.4 | 86.82
Bond    | 0.0002389  | 0.00025807 | 0.00027922 |   0.0 |  0.00
Neigh   | 0.043496   | 0.044275   | 0.045431   |   0.3 |  0.83
Comm    | 0.45264    | 0.62934    | 0.78215    |  17.5 | 11.79
Output  | 0.00062969 | 0.00063807 | 0.00066151 |   0.0 |  0.01
Modify  | 0.015658   | 0.016001   | 0.016405   |   0.2 |  0.30
Other   |            | 0.01259    |            |       |  0.24

Nlocal:        144.000 ave         145 max         143 min
Histogram: 1 0 0 0 0 2 0 0 0 1
Nghost:        2919.50 ave        2944 max        2875 min
Histogram: 1 0 0 0 0 0 0 1 1 1
Neighs:         0.00000 ave           0 max           0 min
Histogram: 4 0 0 0 0 0 0 0 0 0
FullNghs:      57059.0 ave       57576 max       56486 min
Histogram: 1 0 0 0 1 0 1 0 0 1

Total # of neighbors = 228236
Ave neighs/atom = 396.24306
Ave special neighs/atom = 0.0000000
Neighbor list builds = 26
Dangerous builds = 0
next var
jump input.lammps loop
change_box all z scale 1.005 remap
Changing box ...
  orthogonal box = (1.2258943 1.2587857 -2.0927342) to (19.359683 19.326792 22.678312)
run 2000
Per MPI rank memory allocation (min/avg/max) = 7.236 | 7.237 | 7.237 Mbytes
Step Temp E_pair E_mol TotEng Press 
   34000    327.88042   -5150.9617            0   -5126.5922   -69345.682 
   35000    303.35821    -5151.274            0    -5128.727   -61493.309 
   36000    327.42561   -5150.0022            0   -5125.6664   -62722.261 
Loop time of 5.78812 on 4 procs for 2000 steps with 576 atoms

Performance: 29.854 ns/day, 0.804 hours/ns, 345.535 timesteps/s
99.3% CPU use with 4 MPI tasks x 1 OpenMP threads

MPI task timing breakdown:
Section |  min time  |  avg time  |  max time  |%varavg| %total
---------------------------------------------------------------
Pair    | 4.439      | 4.7387     | 5.4678     |  19.5 | 81.87
Bond    | 0.00022201 | 0.0002385  | 0.00025128 |   0.0 |  0.00
Neigh   | 0.044986   | 0.046526   | 0.048143   |   0.5 |  0.80
Comm    | 0.24423    | 0.97462    | 1.2766     |  43.1 | 16.84
Output  | 0.00053752 | 0.00054494 | 0.00056589 |   0.0 |  0.01
Modify  | 0.014129   | 0.01501    | 0.015609   |   0.5 |  0.26
Other   |            | 0.01245    |            |       |  0.22

Nlocal:        144.000 ave         149 max         141 min
Histogram: 1 0 2 0 0 0 0 0 0 1
Nghost:        2921.50 ave        2950 max        2867 min
Histogram: 1 0 0 0 0 0 0 0 2 1
Neighs:         0.00000 ave           0 max           0 min
Histogram: 4 0 0 0 0 0 0 0 0 0
FullNghs:      56722.0 ave       58899 max       55401 min
Histogram: 1 1 0 1 0 0 0 0 0 1

Total # of neighbors = 226888
Ave neighs/atom = 393.90278
Ave special neighs/atom = 0.0000000
Neighbor list builds = 27
Dangerous builds = 0
next var
jump input.lammps loop
change_box all z scale 1.005 remap
Changing box ...
  orthogonal box = (1.2258943 1.2587857 -2.1546618) to (19.359683 19.326792 22.740240)
run 2000
Per MPI rank memory allocation (min/avg/max) = 7.236 | 7.237 | 7.237 Mbytes
Step Temp E_pair E_mol TotEng Press 
   36000    327.42561   -5146.7662            0   -5122.4304   -72812.945 
   37000    304.61539   -5148.0668            0   -5125.4263   -61607.695 
   38000    307.62081   -5147.3759            0   -5124.5121   -61730.527 
Loop time of 5.89161 on 4 procs for 2000 steps with 576 atoms

Performance: 29.330 ns/day, 0.818 hours/ns, 339.466 timesteps/s
98.8% CPU use with 4 MPI tasks x 1 OpenMP threads

MPI task timing breakdown:
Section |  min time  |  avg time  |  max time  |%varavg| %total
---------------------------------------------------------------
Pair    | 4.5768     | 4.8148     | 5.3626     |  14.6 | 81.72
Bond    | 0.00028167 | 0.0003002  | 0.00031598 |   0.0 |  0.01
Neigh   | 0.042036   | 0.042412   | 0.0428     |   0.2 |  0.72
Comm    | 0.43988    | 0.97431    | 1.2267     |  31.9 | 16.54
Output  | 0.00057371 | 0.00058196 | 0.00060636 |   0.0 |  0.01
Modify  | 0.017854   | 0.037855   | 0.059352   |  10.2 |  0.64
Other   |            | 0.02132    |            |       |  0.36

Nlocal:        144.000 ave         149 max         140 min
Histogram: 1 0 0 1 1 0 0 0 0 1
Nghost:        2911.25 ave        2939 max        2860 min
Histogram: 1 0 0 0 0 1 0 0 0 2
Neighs:         0.00000 ave           0 max           0 min
Histogram: 4 0 0 0 0 0 0 0 0 0
FullNghs:      56461.5 ave       58594 max       54748 min
Histogram: 1 0 1 0 0 1 0 0 0 1

Total # of neighbors = 225846
Ave neighs/atom = 392.09375
Ave special neighs/atom = 0.0000000
Neighbor list builds = 24
Dangerous builds = 0
next var
jump input.lammps loop
change_box all z scale 1.005 remap
Changing box ...
  orthogonal box = (1.2258943 1.2587857 -2.2168991) to (19.359683 19.326792 22.802477)
run 2000
Per MPI rank memory allocation (min/avg/max) = 7.236 | 7.237 | 7.237 Mbytes
Step Temp E_pair E_mol TotEng Press 
   38000    307.62081   -5144.0279            0   -5121.1641   -71762.981 
   39000    297.42537   -5146.4222            0   -5124.3162   -66198.216 
   40000    291.80597   -5146.9956            0   -5125.3072   -67893.976 
Loop time of 5.73587 on 4 procs for 2000 steps with 576 atoms

Performance: 30.126 ns/day, 0.797 hours/ns, 348.683 timesteps/s
99.4% CPU use with 4 MPI tasks x 1 OpenMP threads

MPI task timing breakdown:
Section |  min time  |  avg time  |  max time  |%varavg| %total
---------------------------------------------------------------
Pair    | 4.5554     | 4.7943     | 5.2695     |  13.2 | 83.58
Bond    | 0.00025122 | 0.00026477 | 0.00027379 |   0.0 |  0.00
Neigh   | 0.046289   | 0.046841   | 0.04797    |   0.3 |  0.82
Comm    | 0.38979    | 0.86486    | 1.1046     |  31.1 | 15.08
Output  | 0.00058615 | 0.0005966  | 0.00062148 |   0.0 |  0.01
Modify  | 0.015919   | 0.016229   | 0.016373   |   0.1 |  0.28
Other   |            | 0.01277    |            |       |  0.22

Nlocal:        144.000 ave         151 max         139 min
Histogram: 1 0 1 0 1 0 0 0 0 1
Nghost:        2881.75 ave        2901 max        2834 min
Histogram: 1 0 0 0 0 0 0 0 0 3
Neighs:         0.00000 ave           0 max           0 min
Histogram: 4 0 0 0 0 0 0 0 0 0
FullNghs:      56151.5 ave       59091 max       54004 min
Histogram: 1 0 0 2 0 0 0 0 0 1

Total # of neighbors = 224606
Ave neighs/atom = 389.94097
Ave special neighs/atom = 0.0000000
Neighbor list builds = 27
Dangerous builds = 0
next var
jump input.lammps loop
change_box all z scale 1.005 remap
Changing box ...
  orthogonal box = (1.2258943 1.2587857 -2.2794475) to (19.359683 19.326792 22.865025)
run 2000
Per MPI rank memory allocation (min/avg/max) = 7.236 | 7.237 | 7.237 Mbytes
Step Temp E_pair E_mol TotEng Press 
   40000    291.80597   -5143.5633            0    -5121.875   -77713.406 
   41000    291.58091   -5143.7219            0   -5122.0502   -72479.701 
   42000    297.76286   -5141.9476            0   -5119.8165   -69779.406 
Loop time of 5.17981 on 4 procs for 2000 steps with 576 atoms

Performance: 33.360 ns/day, 0.719 hours/ns, 386.115 timesteps/s
98.9% CPU use with 4 MPI tasks x 1 OpenMP threads

MPI task timing breakdown:
Section |  min time  |  avg time  |  max time  |%varavg| %total
---------------------------------------------------------------
Pair    | 4.5013     | 4.5878     | 4.673      |   3.8 | 88.57
Bond    | 0.00023972 | 0.00025933 | 0.00029117 |   0.0 |  0.01
Neigh   | 0.048422   | 0.049125   | 0.049895   |   0.2 |  0.95
Comm    | 0.42969    | 0.51531    | 0.60256    |  11.4 |  9.95
Output  | 0.00052699 | 0.0005329  | 0.00054936 |   0.0 |  0.01
Modify  | 0.014322   | 0.014718   | 0.015153   |   0.3 |  0.28
Other   |            | 0.01203    |            |       |  0.23

Nlocal:        144.000 ave         148 max         139 min
Histogram: 1 0 0 1 0 0 0 0 1 1
Nghost:        2876.25 ave        2905 max        2817 min
Histogram: 1 0 0 0 0 0 0 1 0 2
Neighs:         0.00000 ave           0 max           0 min
Histogram: 4 0 0 0 0 0 0 0 0 0
FullNghs:      55885.5 ave       57371 max       53671 min
Histogram: 1 0 0 0 1 0 0 0 0 2

Total # of neighbors = 223542
Ave neighs/atom = 388.09375
Ave special neighs/atom = 0.0000000
Neighbor list builds = 28
Dangerous builds = 0
next var
jump input.lammps loop
change_box all z scale 1.005 remap
Changing box ...
  orthogonal box = (1.2258943 1.2587857 -2.3423087) to (19.359683 19.326792 22.927886)
run 2000
Per MPI rank memory allocation (min/avg/max) = 7.236 | 7.237 | 7.237 Mbytes
Step Temp E_pair E_mol TotEng Press 
   42000    297.76286   -5138.4333            0   -5116.3022   -79409.443 
   43000    295.79586    -5140.188            0   -5118.2031   -73990.381 
   44000    295.53739   -5141.3709            0   -5119.4052   -70186.242 
Loop time of 4.73745 on 4 procs for 2000 steps with 576 atoms

Performance: 36.475 ns/day, 0.658 hours/ns, 422.168 timesteps/s
99.3% CPU use with 4 MPI tasks x 1 OpenMP threads

MPI task timing breakdown:
Section |  min time  |  avg time  |  max time  |%varavg| %total
---------------------------------------------------------------
Pair    | 4.2262     | 4.2923     | 4.4185     |   3.6 | 90.60
Bond    | 0.00019666 | 0.00021208 | 0.00022609 |   0.0 |  0.00
Neigh   | 0.04583    | 0.046542   | 0.04813    |   0.4 |  0.98
Comm    | 0.24885    | 0.37609    | 0.44351    |  12.3 |  7.94
Output  | 0.00045221 | 0.00045961 | 0.00048068 |   0.0 |  0.01
Modify  | 0.010794   | 0.011435   | 0.012077   |   0.5 |  0.24
Other   |            | 0.0104     |            |       |  0.22

Nlocal:        144.000 ave         150 max         137 min
Histogram: 1 0 0 0 0 1 1 0 0 1
Nghost:        2857.00 ave        2882 max        2803 min
Histogram: 1 0 0 0 0 0 0 0 1 2
Neighs:         0.00000 ave           0 max           0 min
Histogram: 4 0 0 0 0 0 0 0 0 0
FullNghs:      55612.5 ave       58298 max       52610 min
Histogram: 1 0 0 0 0 2 0 0 0 1

Total # of neighbors = 222450
Ave neighs/atom = 386.19792
Ave special neighs/atom = 0.0000000
Neighbor list builds = 28
Dangerous builds = 0
next var
jump input.lammps loop
change_box all z scale 1.005 remap
Changing box ...
  orthogonal box = (1.2258943 1.2587857 -2.4054842) to (19.359683 19.326792 22.991062)
run 2000
Per MPI rank memory allocation (min/avg/max) = 7.236 | 7.237 | 7.237 Mbytes
Step Temp E_pair E_mol TotEng Press 
   44000    295.53739   -5137.7051            0   -5115.7394   -79773.953 
   45000    317.17377   -5136.9563            0   -5113.3825   -73898.582 
   46000    292.82559   -5138.0864            0   -5116.3223   -72861.055 
Loop time of 4.97992 on 4 procs for 2000 steps with 576 atoms

Performance: 34.699 ns/day, 0.692 hours/ns, 401.613 timesteps/s
99.0% CPU use with 4 MPI tasks x 1 OpenMP threads

MPI task timing breakdown:
Section |  min time  |  avg time  |  max time  |%varavg| %total
---------------------------------------------------------------
Pair    | 4.2313     | 4.3632     | 4.5522     |   6.0 | 87.62
Bond    | 0.00019447 | 0.00021183 | 0.00023611 |   0.0 |  0.00
Neigh   | 0.048844   | 0.049687   | 0.050141   |   0.2 |  1.00
Comm    | 0.35369    | 0.5431     | 0.67579    |  17.1 | 10.91
Output  | 0.00045655 | 0.00046351 | 0.00048326 |   0.0 |  0.01
Modify  | 0.012157   | 0.012426   | 0.012636   |   0.2 |  0.25
Other   |            | 0.01084    |            |       |  0.22

Nlocal:        144.000 ave         148 max         135 min
Histogram: 1 0 0 0 0 0 0 1 0 2
Nghost:        2860.75 ave        2884 max        2808 min
Histogram: 1 0 0 0 0 0 0 1 0 2
Neighs:         0.00000 ave           0 max           0 min
Histogram: 4 0 0 0 0 0 0 0 0 0
FullNghs:      55355.0 ave       57323 max       51507 min
Histogram: 1 0 0 0 0 0 0 1 1 1

Total # of neighbors = 221420
Ave neighs/atom = 384.40972
Ave special neighs/atom = 0.0000000
Neighbor list builds = 30
Dangerous builds = 0
next var
jump input.lammps loop
change_box all z scale 1.005 remap
Changing box ...
  orthogonal box = (1.2258943 1.2587857 -2.4689756) to (19.359683 19.326792 23.054553)
run 2000
Per MPI rank memory allocation (min/avg/max) = 7.236 | 7.237 | 7.237 Mbytes
Step Temp E_pair E_mol TotEng Press 
   46000    292.82559   -5134.3211            0   -5112.5569   -82299.629 
   47000    311.16605    -5133.996            0   -5110.8687   -75167.057 
   48000    278.90064    -5133.899            0   -5113.1699   -75275.543 
Loop time of 4.65218 on 4 procs for 2000 steps with 576 atoms

Performance: 37.144 ns/day, 0.646 hours/ns, 429.906 timesteps/s
99.2% CPU use with 4 MPI tasks x 1 OpenMP threads

MPI task timing breakdown:
Section |  min time  |  avg time  |  max time  |%varavg| %total
---------------------------------------------------------------
Pair    | 4.027      | 4.2214     | 4.3848     |   6.3 | 90.74
Bond    | 0.00019033 | 0.00020205 | 0.00021728 |   0.0 |  0.00
Neigh   | 0.046548   | 0.048901   | 0.050515   |   0.7 |  1.05
Comm    | 0.19573    | 0.36028    | 0.55644    |  21.8 |  7.74
Output  | 0.00043232 | 0.00043909 | 0.00045568 |   0.0 |  0.01
Modify  | 0.01046    | 0.01086    | 0.011277   |   0.3 |  0.23
Other   |            | 0.01006    |            |       |  0.22

Nlocal:        144.000 ave         150 max         135 min
Histogram: 1 0 0 0 0 1 0 0 1 1
Nghost:        2841.50 ave        2869 max        2790 min
Histogram: 1 0 0 0 0 0 1 0 0 2
Neighs:         0.00000 ave           0 max           0 min
Histogram: 4 0 0 0 0 0 0 0 0 0
FullNghs:      55105.0 ave       57875 max       51214 min
Histogram: 1 0 0 0 0 1 0 1 0 1

Total # of neighbors = 220420
Ave neighs/atom = 382.67361
Ave special neighs/atom = 0.0000000
Neighbor list builds = 30
Dangerous builds = 0
next var
jump input.lammps loop
change_box all z scale 1.005 remap
Changing box ...
  orthogonal box = (1.2258943 1.2587857 -2.5327844) to (19.359683 19.326792 23.118362)
run 2000
Per MPI rank memory allocation (min/avg/max) = 7.236 | 7.237 | 7.238 Mbytes
Step Temp E_pair E_mol TotEng Press 
   48000    278.90064   -5129.9655            0   -5109.2363   -84576.156 
   49000    308.23467   -5130.6571            0   -5107.7477   -75393.373 
   50000    288.96282   -5131.0231            0    -5109.546   -81559.466 
Loop time of 4.62385 on 4 procs for 2000 steps with 576 atoms

Performance: 37.371 ns/day, 0.642 hours/ns, 432.540 timesteps/s
99.2% CPU use with 4 MPI tasks x 1 OpenMP threads

MPI task timing breakdown:
Section |  min time  |  avg time  |  max time  |%varavg| %total
---------------------------------------------------------------
Pair    | 4.0667     | 4.1795     | 4.3203     |   4.6 | 90.39
Bond    | 0.00016801 | 0.00017762 | 0.00018868 |   0.0 |  0.00
Neigh   | 0.043206   | 0.044886   | 0.046472   |   0.6 |  0.97
Comm    | 0.23835    | 0.38036    | 0.49394    |  15.3 |  8.23
Output  | 0.00044967 | 0.00045647 | 0.00047356 |   0.0 |  0.01
Modify  | 0.0089544  | 0.0094923  | 0.010041   |   0.5 |  0.21
Other   |            | 0.009027   |            |       |  0.20

Nlocal:        144.000 ave         152 max         136 min
Histogram: 1 0 0 0 0 2 0 0 0 1
Nghost:        2841.00 ave        2868 max        2784 min
Histogram: 1 0 0 0 0 0 0 1 0 2
Neighs:         0.00000 ave           0 max           0 min
Histogram: 4 0 0 0 0 0 0 0 0 0
FullNghs:      54832.0 ave       58330 max       51344 min
Histogram: 1 0 0 0 1 1 0 0 0 1

Total # of neighbors = 219328
Ave neighs/atom = 380.77778
Ave special neighs/atom = 0.0000000
Neighbor list builds = 28
Dangerous builds = 0
next var
jump input.lammps loop
change_box all z scale 1.005 remap
Changing box ...
  orthogonal box = (1.2258943 1.2587857 -2.5969122) to (19.359683 19.326792 23.182490)
run 2000
Per MPI rank memory allocation (min/avg/max) = 7.236 | 7.237 | 7.238 Mbytes
Step Temp E_pair E_mol TotEng Press 
   50000    288.96282   -5126.8485            0   -5105.3715   -90478.263 
   51000    297.82598   -5128.2635            0   -5106.1277   -75408.401 
   52000    314.38593   -5129.9995            0   -5106.6329   -69309.223 
Loop time of 5.03693 on 4 procs for 2000 steps with 576 atoms

Performance: 34.307 ns/day, 0.700 hours/ns, 397.067 timesteps/s
99.0% CPU use with 4 MPI tasks x 1 OpenMP threads

MPI task timing breakdown:
Section |  min time  |  avg time  |  max time  |%varavg| %total
---------------------------------------------------------------
Pair    | 4.288      | 4.3793     | 4.5536     |   5.1 | 86.94
Bond    | 0.00024505 | 0.00026258 | 0.00027276 |   0.0 |  0.01
Neigh   | 0.048544   | 0.050587   | 0.051911   |   0.6 |  1.00
Comm    | 0.40411    | 0.57877    | 0.66958    |  14.0 | 11.49
Output  | 0.00053587 | 0.00054338 | 0.00055989 |   0.0 |  0.01
Modify  | 0.014197   | 0.015161   | 0.016247   |   0.7 |  0.30
Other   |            | 0.01232    |            |       |  0.24

Nlocal:        144.000 ave         153 max         135 min
Histogram: 1 0 0 1 0 0 1 0 0 1
Nghost:        2803.50 ave        2836 max        2746 min
Histogram: 1 0 0 0 0 1 0 0 0 2
Neighs:         0.00000 ave           0 max           0 min
Histogram: 4 0 0 0 0 0 0 0 0 0
FullNghs:      54541.5 ave       58636 max       50447 min
Histogram: 1 0 1 0 0 0 0 1 0 1

Total # of neighbors = 218166
Ave neighs/atom = 378.76042
Ave special neighs/atom = 0.0000000
Neighbor list builds = 30
Dangerous builds = 0
next var
jump input.lammps loop
change_box all z scale 1.005 remap
Changing box ...
  orthogonal box = (1.2258943 1.2587857 -2.6613608) to (19.359683 19.326792 23.246938)
run 2000
Per MPI rank memory allocation (min/avg/max) = 7.236 | 7.237 | 7.238 Mbytes
Step Temp E_pair E_mol TotEng Press 
   52000    314.38593   -5126.4387            0   -5103.0721   -78722.992 
   53000    296.43034   -5126.3401            0    -5104.308   -69518.171 
   54000    306.30869   -5129.5179            0   -5106.7516   -73058.872 
Loop time of 5.65031 on 4 procs for 2000 steps with 576 atoms

Performance: 30.582 ns/day, 0.785 hours/ns, 353.963 timesteps/s
99.3% CPU use with 4 MPI tasks x 1 OpenMP threads

MPI task timing breakdown:
Section |  min time  |  avg time  |  max time  |%varavg| %total
---------------------------------------------------------------
Pair    | 4.2758     | 4.6087     | 4.8545     |  11.0 | 81.57
Bond    | 0.00027614 | 0.0003129  | 0.00035761 |   0.0 |  0.01
Neigh   | 0.050864   | 0.055141   | 0.059053   |   1.2 |  0.98
Comm    | 0.70977    | 0.95231    | 1.2848     |  24.1 | 16.85
Output  | 0.0011613  | 0.0011684  | 0.0011865  |   0.0 |  0.02
Modify  | 0.018118   | 0.018808   | 0.019516   |   0.4 |  0.33
Other   |            | 0.01384    |            |       |  0.24

Nlocal:        144.000 ave         156 max         132 min
Histogram: 1 0 0 0 1 1 0 0 0 1
Nghost:        2808.25 ave        2853 max        2735 min
Histogram: 1 0 0 0 0 1 0 0 0 2
Neighs:         0.00000 ave           0 max           0 min
Histogram: 4 0 0 0 0 0 0 0 0 0
FullNghs:      54257.0 ave       59612 max       48947 min
Histogram: 1 0 0 1 0 0 1 0 0 1

Total # of neighbors = 217028
Ave neighs/atom = 376.78472
Ave special neighs/atom = 0.0000000
Neighbor list builds = 32
Dangerous builds = 0
next var
jump input.lammps loop
change_box all z scale 1.005 remap
Changing box ...
  orthogonal box = (1.2258943 1.2587857 -2.7261315) to (19.359683 19.326792 23.311709)
run 2000
Per MPI rank memory allocation (min/avg/max) = 7.236 | 7.237 | 7.238 Mbytes
Step Temp E_pair E_mol TotEng Press 
   54000    306.30869   -5125.8675            0   -5103.1012   -82333.923 
   55000    295.34489   -5124.8863            0   -5102.9349   -75860.745 
   56000    283.68424   -5126.6108            0   -5105.5261   -70478.092 
Loop time of 4.86489 on 4 procs for 2000 steps with 576 atoms

Performance: 35.520 ns/day, 0.676 hours/ns, 411.109 timesteps/s
99.4% CPU use with 4 MPI tasks x 1 OpenMP threads

MPI task timing breakdown:
Section |  min time  |  avg time  |  max time  |%varavg| %total
---------------------------------------------------------------
Pair    | 4.0276     | 4.2095     | 4.5236     |   9.7 | 86.53
Bond    | 0.00017966 | 0.00019219 | 0.00020061 |   0.0 |  0.00
Neigh   | 0.038179   | 0.040355   | 0.042974   |   0.9 |  0.83
Comm    | 0.27757    | 0.59352    | 0.7767     |  26.0 | 12.20
Output  | 0.00043685 | 0.00044969 | 0.00048427 |   0.0 |  0.01
Modify  | 0.010435   | 0.011094   | 0.011735   |   0.5 |  0.23
Other   |            | 0.009736   |            |       |  0.20

Nlocal:        144.000 ave         156 max         133 min
Histogram: 1 0 0 1 0 1 0 0 0 1
Nghost:        2797.00 ave        2851 max        2713 min
Histogram: 1 0 0 0 0 0 1 1 0 1
Neighs:         0.00000 ave           0 max           0 min
Histogram: 4 0 0 0 0 0 0 0 0 0
FullNghs:      53981.5 ave       59411 max       48990 min
Histogram: 1 0 0 1 0 1 0 0 0 1

Total # of neighbors = 215926
Ave neighs/atom = 374.87153
Ave special neighs/atom = 0.0000000
Neighbor list builds = 25
Dangerous builds = 0
next var
jump input.lammps loop
change_box all z scale 1.005 remap
Changing box ...
  orthogonal box = (1.2258943 1.2587857 -2.7912261) to (19.359683 19.326792 23.376804)
run 2000
Per MPI rank memory allocation (min/avg/max) = 7.236 | 7.237 | 7.238 Mbytes
Step Temp E_pair E_mol TotEng Press 
   56000    283.68424    -5122.957            0   -5101.8723   -79691.218 
   57000    303.01443    -5121.611            0   -5099.0896   -74398.675 
   58000    291.60644   -5123.5256            0   -5101.8521   -75343.398 
Loop time of 5.31965 on 4 procs for 2000 steps with 576 atoms

Performance: 32.483 ns/day, 0.739 hours/ns, 375.965 timesteps/s
99.4% CPU use with 4 MPI tasks x 1 OpenMP threads

MPI task timing breakdown:
Section |  min time  |  avg time  |  max time  |%varavg| %total
---------------------------------------------------------------
Pair    | 4.0065     | 4.3978     | 4.8512     |  15.0 | 82.67
Bond    | 0.00017939 | 0.00019279 | 0.00021502 |   0.0 |  0.00
Neigh   | 0.044388   | 0.045952   | 0.048471   |   0.7 |  0.86
Comm    | 0.40018    | 0.85298    | 1.2464     |  34.0 | 16.03
Output  | 0.00055993 | 0.00056617 | 0.00058457 |   0.0 |  0.01
Modify  | 0.011025   | 0.011656   | 0.012147   |   0.4 |  0.22
Other   |            | 0.0105     |            |       |  0.20

Nlocal:        144.000 ave         158 max         132 min
Histogram: 1 0 0 1 1 0 0 0 0 1
Nghost:        2776.00 ave        2832 max        2691 min
Histogram: 1 0 0 0 0 1 0 0 0 2
Neighs:         0.00000 ave           0 max           0 min
Histogram: 4 0 0 0 0 0 0 0 0 0
FullNghs:      53793.0 ave       60032 max       48393 min
Histogram: 1 0 0 1 0 1 0 0 0 1

Total # of neighbors = 215172
Ave neighs/atom = 373.56250
Ave special neighs/atom = 0.0000000
Neighbor list builds = 28
Dangerous builds = 0
next var
jump input.lammps loop
change_box all z scale 1.005 remap
Changing box ...
  orthogonal box = (1.2258943 1.2587857 -2.8566462) to (19.359683 19.326792 23.442224)
run 2000
Per MPI rank memory allocation (min/avg/max) = 7.236 | 7.237 | 7.238 Mbytes
Step Temp E_pair E_mol TotEng Press 
   58000    291.60644    -5119.703            0   -5098.0295   -84345.363 
   59000    303.03761   -5119.5756            0   -5097.0525   -69949.377 
   60000    306.62793   -5121.6428            0   -5098.8528   -66001.262 
Loop time of 4.77967 on 4 procs for 2000 steps with 576 atoms

Performance: 36.153 ns/day, 0.664 hours/ns, 418.439 timesteps/s
99.3% CPU use with 4 MPI tasks x 1 OpenMP threads

MPI task timing breakdown:
Section |  min time  |  avg time  |  max time  |%varavg| %total
---------------------------------------------------------------
Pair    | 3.8582     | 4.115      | 4.4695     |  12.3 | 86.09
Bond    | 0.00017424 | 0.00018115 | 0.00019016 |   0.0 |  0.00
Neigh   | 0.048885   | 0.052498   | 0.056737   |   1.3 |  1.10
Comm    | 0.23468    | 0.59254    | 0.85023    |  32.6 | 12.40
Output  | 0.00042674 | 0.00043299 | 0.00044911 |   0.0 |  0.01
Modify  | 0.0090602  | 0.0098677  | 0.01069    |   0.7 |  0.21
Other   |            | 0.009129   |            |       |  0.19

Nlocal:        144.000 ave         159 max         129 min
Histogram: 1 0 0 1 0 0 1 0 0 1
Nghost:        2782.75 ave        2850 max        2698 min
Histogram: 1 0 1 0 0 0 0 0 0 2
Neighs:         0.00000 ave           0 max           0 min
Histogram: 4 0 0 0 0 0 0 0 0 0
FullNghs:      53523.5 ave       60559 max       46530 min
Histogram: 1 0 1 0 0 0 0 1 0 1

Total # of neighbors = 214094
Ave neighs/atom = 371.69097
Ave special neighs/atom = 0.0000000
Neighbor list builds = 33
Dangerous builds = 0
next var
jump input.lammps loop
change_box all z scale 1.005 remap
Changing box ...
  orthogonal box = (1.2258943 1.2587857 -2.9223934) to (19.359683 19.326792 23.507971)
run 2000
Per MPI rank memory allocation (min/avg/max) = 7.236 | 7.237 | 7.238 Mbytes
Step Temp E_pair E_mol TotEng Press 
   60000    306.62793   -5118.1862            0   -5095.3962     -75242.8 
   61000    285.78182   -5118.6508            0   -5097.4102   -71565.888 
   62000    306.58315   -5117.8348            0   -5095.0482   -67237.124 
Loop time of 5.38446 on 4 procs for 2000 steps with 576 atoms

Performance: 32.092 ns/day, 0.748 hours/ns, 371.439 timesteps/s
99.5% CPU use with 4 MPI tasks x 1 OpenMP threads

MPI task timing breakdown:
Section |  min time  |  avg time  |  max time  |%varavg| %total
---------------------------------------------------------------
Pair    | 3.7558     | 4.3936     | 4.8563     |  19.5 | 81.60
Bond    | 0.00018227 | 0.00019129 | 0.00019603 |   0.0 |  0.00
Neigh   | 0.048361   | 0.056052   | 0.064611   |   2.5 |  1.04
Comm    | 0.44022    | 0.91037    | 1.5571     |  43.5 | 16.91
Output  | 0.00061525 | 0.00062278 | 0.00064175 |   0.0 |  0.01
Modify  | 0.01077    | 0.012602   | 0.014096   |   1.2 |  0.23
Other   |            | 0.01101    |            |       |  0.20

Nlocal:        144.000 ave         156 max         131 min
Histogram: 1 0 0 0 1 0 1 0 0 1
Nghost:        2770.75 ave        2837 max        2688 min
Histogram: 1 0 1 0 0 0 0 0 0 2
Neighs:         0.00000 ave           0 max           0 min
Histogram: 4 0 0 0 0 0 0 0 0 0
FullNghs:      53239.0 ave       59045 max       47116 min
Histogram: 1 0 0 1 0 0 0 1 0 1

Total # of neighbors = 212956
Ave neighs/atom = 369.71528
Ave special neighs/atom = 0.0000000
Neighbor list builds = 32
Dangerous builds = 0
next var
jump input.lammps loop
change_box all z scale 1.005 remap
Changing box ...
  orthogonal box = (1.2258943 1.2587857 -2.9884693) to (19.359683 19.326792 23.574047)
run 2000
Per MPI rank memory allocation (min/avg/max) = 7.236 | 7.237 | 7.238 Mbytes
Step Temp E_pair E_mol TotEng Press 
   62000    306.58315   -5114.3801            0   -5091.5934   -76503.222 
   63000    292.58275   -5113.6953            0   -5091.9492   -67969.619 
   64000    299.63457   -5112.6505            0   -5090.3802   -73564.693 
Loop time of 5.15013 on 4 procs for 2000 steps with 576 atoms

Performance: 33.553 ns/day, 0.715 hours/ns, 388.339 timesteps/s
99.1% CPU use with 4 MPI tasks x 1 OpenMP threads

MPI task timing breakdown:
Section |  min time  |  avg time  |  max time  |%varavg| %total
---------------------------------------------------------------
Pair    | 3.9747     | 4.2837     | 4.635      |  11.8 | 83.18
Bond    | 0.00023884 | 0.00025097 | 0.00026247 |   0.0 |  0.00
Neigh   | 0.046435   | 0.049959   | 0.054079   |   1.3 |  0.97
Comm    | 0.43512    | 0.7894     | 1.0988     |  27.8 | 15.33
Output  | 0.000491   | 0.00049759 | 0.00051343 |   0.0 |  0.01
Modify  | 0.013422   | 0.014541   | 0.015748   |   0.9 |  0.28
Other   |            | 0.01174    |            |       |  0.23

Nlocal:        144.000 ave         157 max         132 min
Histogram: 1 0 1 0 0 0 1 0 0 1
Nghost:        2765.25 ave        2825 max        2676 min
Histogram: 1 0 0 0 1 0 0 0 0 2
Neighs:         0.00000 ave           0 max           0 min
Histogram: 4 0 0 0 0 0 0 0 0 0
FullNghs:      52995.5 ave       59216 max       47303 min
Histogram: 1 0 1 0 0 0 0 1 0 1

Total # of neighbors = 211982
Ave neighs/atom = 368.02431
Ave special neighs/atom = 0.0000000
Neighbor list builds = 31
Dangerous builds = 0
next var
jump input.lammps loop
change_box all z scale 1.005 remap
Changing box ...
  orthogonal box = (1.2258943 1.2587857 -3.0548756) to (19.359683 19.326792 23.640453)
run 2000
Per MPI rank memory allocation (min/avg/max) = 7.236 | 7.237 | 7.238 Mbytes
Step Temp E_pair E_mol TotEng Press 
   64000    299.63457   -5108.7786            0   -5086.5083   -82395.413 
   65000    316.98447   -5111.9229            0   -5088.3632   -67716.712 
   66000    294.79138   -5111.5111            0   -5089.6009     -71157.9 
Loop time of 5.18434 on 4 procs for 2000 steps with 576 atoms

Performance: 33.331 ns/day, 0.720 hours/ns, 385.777 timesteps/s
99.1% CPU use with 4 MPI tasks x 1 OpenMP threads

MPI task timing breakdown:
Section |  min time  |  avg time  |  max time  |%varavg| %total
---------------------------------------------------------------
Pair    | 3.6518     | 4.2163     | 4.9235     |  23.7 | 81.33
Bond    | 0.00020884 | 0.00021669 | 0.00023506 |   0.0 |  0.00
Neigh   | 0.04647    | 0.051778   | 0.05868    |   2.0 |  1.00
Comm    | 0.17959    | 0.88083    | 1.4376     |  51.1 | 16.99
Output  | 0.00044191 | 0.00044915 | 0.00046641 |   0.0 |  0.01
Modify  | 0.011285   | 0.023982   | 0.036625   |   8.1 |  0.46
Other   |            | 0.01076    |            |       |  0.21

Nlocal:        144.000 ave         159 max         127 min
Histogram: 1 0 0 0 1 0 0 1 0 1
Nghost:        2748.50 ave        2802 max        2667 min
Histogram: 1 0 0 0 1 0 0 0 0 2
Neighs:         0.00000 ave           0 max           0 min
Histogram: 4 0 0 0 0 0 0 0 0 0
FullNghs:      52724.0 ave       59791 max       44943 min
Histogram: 1 0 0 1 0 0 0 1 0 1

Total # of neighbors = 210896
Ave neighs/atom = 366.13889
Ave special neighs/atom = 0.0000000
Neighbor list builds = 31
Dangerous builds = 0
next var
jump input.lammps loop
change_box all z scale 1.005 remap
Changing box ...
  orthogonal box = (1.2258943 1.2587857 -3.1216139) to (19.359683 19.326792 23.707192)
run 2000
Per MPI rank memory allocation (min/avg/max) = 7.236 | 7.237 | 7.238 Mbytes
Step Temp E_pair E_mol TotEng Press 
   66000    294.79138   -5107.7689            0   -5085.8587   -79898.403 
   67000    294.43615   -5109.2716            0   -5087.3878   -74326.517 
   68000    321.29818   -5109.0259            0   -5085.1455   -71207.969 
Loop time of 5.74054 on 4 procs for 2000 steps with 576 atoms

Performance: 30.102 ns/day, 0.797 hours/ns, 348.399 timesteps/s
99.0% CPU use with 4 MPI tasks x 1 OpenMP threads

MPI task timing breakdown:
Section |  min time  |  avg time  |  max time  |%varavg| %total
---------------------------------------------------------------
Pair    | 3.6081     | 4.3622     | 5.4576     |  34.0 | 75.99
Bond    | 0.000222   | 0.0002628  | 0.00031671 |   0.0 |  0.00
Neigh   | 0.050039   | 0.056771   | 0.065126   |   2.4 |  0.99
Comm    | 0.19033    | 1.2915     | 2.0497     |  62.8 | 22.50
Output  | 0.00044749 | 0.00045515 | 0.00047252 |   0.0 |  0.01
Modify  | 0.014251   | 0.01668    | 0.01886    |   1.7 |  0.29
Other   |            | 0.01266    |            |       |  0.22

Nlocal:        144.000 ave         160 max         128 min
Histogram: 1 0 1 0 0 0 0 1 0 1
Nghost:        2748.00 ave        2819 max        2665 min
Histogram: 1 0 1 0 0 0 0 0 0 2
Neighs:         0.00000 ave           0 max           0 min
Histogram: 4 0 0 0 0 0 0 0 0 0
FullNghs:      52455.0 ave       59989 max       44850 min
Histogram: 1 0 1 0 0 0 0 1 0 1

Total # of neighbors = 209820
Ave neighs/atom = 364.27083
Ave special neighs/atom = 0.0000000
Neighbor list builds = 34
Dangerous builds = 0
next var
jump input.lammps loop
change_box all z scale 1.005 remap
Changing box ...
  orthogonal box = (1.2258943 1.2587857 -3.1886859) to (19.359683 19.326792 23.774264)
run 2000
Per MPI rank memory allocation (min/avg/max) = 7.236 | 7.237 | 7.238 Mbytes
Step Temp E_pair E_mol TotEng Press 
   68000    321.29818   -5105.3562            0   -5081.4758   -80033.633 
   69000    311.14462   -5105.3105            0   -5082.1848    -71947.53 
   70000    301.34019   -5107.1171            0   -5084.7202   -71046.022 
Loop time of 5.81693 on 4 procs for 2000 steps with 576 atoms

Performance: 29.706 ns/day, 0.808 hours/ns, 343.824 timesteps/s
99.4% CPU use with 4 MPI tasks x 1 OpenMP threads

MPI task timing breakdown:
Section |  min time  |  avg time  |  max time  |%varavg| %total
---------------------------------------------------------------
Pair    | 3.8241     | 4.5514     | 5.4566     |  29.3 | 78.24
Bond    | 0.00029684 | 0.00031181 | 0.0003387  |   0.0 |  0.01
Neigh   | 0.052234   | 0.057845   | 0.064918   |   2.0 |  0.99
Comm    | 0.26174    | 1.1721     | 1.903      |  58.1 | 20.15
Output  | 0.00065827 | 0.0006767  | 0.00072822 |   0.0 |  0.01
Modify  | 0.018551   | 0.020307   | 0.02179    |   1.0 |  0.35
Other   |            | 0.01428    |            |       |  0.25

Nlocal:        144.000 ave         161 max         125 min
Histogram: 1 0 0 1 0 0 0 1 0 1
Nghost:        2727.00 ave        2798 max        2637 min
Histogram: 1 0 0 1 0 0 0 0 0 2
Neighs:         0.00000 ave           0 max           0 min
Histogram: 4 0 0 0 0 0 0 0 0 0
FullNghs:      52214.5 ave       60237 max       43584 min
Histogram: 1 0 1 0 0 0 0 1 0 1

Total # of neighbors = 208858
Ave neighs/atom = 362.60069
Ave special neighs/atom = 0.0000000
Neighbor list builds = 33
Dangerous builds = 0
next var
jump input.lammps loop
change_box all z scale 1.005 remap
Changing box ...
  orthogonal box = (1.2258943 1.2587857 -3.2560933) to (19.359683 19.326792 23.841671)
run 2000
Per MPI rank memory allocation (min/avg/max) = 7.236 | 7.237 | 7.238 Mbytes
Step Temp E_pair E_mol TotEng Press 
   70000    301.34019    -5103.486            0    -5081.089    -79857.79 
   71000    300.77988   -5105.9778            0   -5083.6225   -68510.627 
   72000    310.65909   -5105.0738            0   -5081.9842    -68584.29 
Loop time of 5.726 on 4 procs for 2000 steps with 576 atoms

Performance: 30.178 ns/day, 0.795 hours/ns, 349.284 timesteps/s
99.2% CPU use with 4 MPI tasks x 1 OpenMP threads

MPI task timing breakdown:
Section |  min time  |  avg time  |  max time  |%varavg| %total
---------------------------------------------------------------
Pair    | 3.9327     | 4.5903     | 5.4004     |  26.4 | 80.17
Bond    | 0.00033312 | 0.00034683 | 0.00036472 |   0.0 |  0.01
Neigh   | 0.050902   | 0.058491   | 0.066066   |   2.2 |  1.02
Comm    | 0.22216    | 1.0382     | 1.7015     |  56.0 | 18.13
Output  | 0.000573   | 0.00058384 | 0.00060823 |   0.0 |  0.01
Modify  | 0.02125    | 0.022858   | 0.024411   |   1.0 |  0.40
Other   |            | 0.01526    |            |       |  0.27

Nlocal:        144.000 ave         159 max         127 min
Histogram: 1 0 0 1 0 0 0 1 0 1
Nghost:        2721.50 ave        2804 max        2620 min
Histogram: 1 0 1 0 0 0 0 0 0 2
Neighs:         0.00000 ave           0 max           0 min
Histogram: 4 0 0 0 0 0 0 0 0 0
FullNghs:      52047.5 ave       59430 max       44032 min
Histogram: 1 0 1 0 0 0 0 0 1 1

Total # of neighbors = 208190
Ave neighs/atom = 361.44097
Ave special neighs/atom = 0.0000000
Neighbor list builds = 33
Dangerous builds = 0
next var
jump input.lammps loop
change_box all z scale 1.005 remap
Changing box ...
  orthogonal box = (1.2258943 1.2587857 -3.3238377) to (19.359683 19.326792 23.909415)
run 2000
Per MPI rank memory allocation (min/avg/max) = 7.236 | 7.237 | 7.238 Mbytes
Step Temp E_pair E_mol TotEng Press 
   72000    310.65909   -5101.6108            0   -5078.5212   -77409.732 
   73000    308.44148   -5102.0263            0   -5079.1015    -79746.47 
   74000    296.51848   -5101.5746            0    -5079.536   -70943.733 
Loop time of 5.42965 on 4 procs for 2000 steps with 576 atoms

Performance: 31.825 ns/day, 0.754 hours/ns, 368.348 timesteps/s
98.8% CPU use with 4 MPI tasks x 1 OpenMP threads

MPI task timing breakdown:
Section |  min time  |  avg time  |  max time  |%varavg| %total
---------------------------------------------------------------
Pair    | 3.7431     | 4.4459     | 4.9757     |  23.1 | 81.88
Bond    | 0.00030683 | 0.00031582 | 0.00032338 |   0.0 |  0.01
Neigh   | 0.04671    | 0.053312   | 0.057205   |   1.8 |  0.98
Comm    | 0.36489    | 0.8966     | 1.6041     |  51.8 | 16.51
Output  | 0.00043712 | 0.00044457 | 0.00046187 |   0.0 |  0.01
Modify  | 0.017849   | 0.019365   | 0.020927   |   1.0 |  0.36
Other   |            | 0.01374    |            |       |  0.25

Nlocal:        144.000 ave         159 max         125 min
Histogram: 1 0 0 1 0 0 0 0 1 1
Nghost:        2706.75 ave        2800 max        2584 min
Histogram: 1 0 1 0 0 0 0 0 0 2
Neighs:         0.00000 ave           0 max           0 min
Histogram: 4 0 0 0 0 0 0 0 0 0
FullNghs:      51804.5 ave       59216 max       42835 min
Histogram: 1 0 1 0 0 0 0 0 0 2

Total # of neighbors = 207218
Ave neighs/atom = 359.75347
Ave special neighs/atom = 0.0000000
Neighbor list builds = 31
Dangerous builds = 0
next var
jump input.lammps loop
change_box all z scale 1.005 remap
Changing box ...
  orthogonal box = (1.2258943 1.2587857 -3.3919208) to (19.359683 19.326792 23.977499)
run 2000
Per MPI rank memory allocation (min/avg/max) = 7.236 | 7.237 | 7.238 Mbytes
Step Temp E_pair E_mol TotEng Press 
   74000    296.51848   -5098.0901            0   -5076.0515   -79647.976 
   75000    315.19298   -5097.3437            0   -5073.9171   -72769.081 
   76000     303.4072   -5102.2277            0   -5079.6771   -76429.669 
Loop time of 5.88358 on 4 procs for 2000 steps with 576 atoms

Performance: 29.370 ns/day, 0.817 hours/ns, 339.929 timesteps/s
99.4% CPU use with 4 MPI tasks x 1 OpenMP threads

MPI task timing breakdown:
Section |  min time  |  avg time  |  max time  |%varavg| %total
---------------------------------------------------------------
Pair    | 3.8208     | 4.7071     | 5.1346     |  24.3 | 80.00
Bond    | 0.00032357 | 0.00033282 | 0.00033996 |   0.0 |  0.01
Neigh   | 0.051301   | 0.059825   | 0.063933   |   2.0 |  1.02
Comm    | 0.65125    | 1.0815     | 1.9753     |  51.2 | 18.38
Output  | 0.00051558 | 0.00052264 | 0.0005414  |   0.0 |  0.01
Modify  | 0.019073   | 0.020085   | 0.021165   |   0.7 |  0.34
Other   |            | 0.01421    |            |       |  0.24

Nlocal:        144.000 ave         164 max         121 min
Histogram: 1 0 0 1 0 0 0 1 0 1
Nghost:        2709.50 ave        2813 max        2590 min
Histogram: 1 0 1 0 0 0 0 0 0 2
Neighs:         0.00000 ave           0 max           0 min
Histogram: 4 0 0 0 0 0 0 0 0 0
FullNghs:      51579.5 ave       60970 max       41135 min
Histogram: 1 0 1 0 0 0 0 0 1 1

Total # of neighbors = 206318
Ave neighs/atom = 358.19097
Ave special neighs/atom = 0.0000000
Neighbor list builds = 33
Dangerous builds = 0
next var
jump input.lammps loop
change_box all z scale 1.005 remap
Changing box ...
  orthogonal box = (1.2258943 1.2587857 -3.4603444) to (19.359683 19.326792 24.045922)
run 2000
Per MPI rank memory allocation (min/avg/max) = 7.237 | 7.237 | 7.238 Mbytes
Step Temp E_pair E_mol TotEng Press 
   76000     303.4072   -5098.5604            0   -5076.0098   -84967.052 
   77000    306.85628   -5098.8725            0   -5076.0656   -68695.964 
   78000    298.38338   -5099.0572            0   -5076.8799   -70951.502 
Loop time of 5.10987 on 4 procs for 2000 steps with 576 atoms

Performance: 33.817 ns/day, 0.710 hours/ns, 391.399 timesteps/s
98.8% CPU use with 4 MPI tasks x 1 OpenMP threads

MPI task timing breakdown:
Section |  min time  |  avg time  |  max time  |%varavg| %total
---------------------------------------------------------------
Pair    | 3.2819     | 4.1312     | 4.8372     |  29.2 | 80.85
Bond    | 0.00020162 | 0.0002168  | 0.00024197 |   0.0 |  0.00
Neigh   | 0.0442     | 0.052289   | 0.05971    |   2.6 |  1.02
Comm    | 0.1906     | 0.90206    | 1.7576     |  62.8 | 17.65
Output  | 0.0004079  | 0.00041548 | 0.0004338  |   0.0 |  0.01
Modify  | 0.011693   | 0.013258   | 0.014803   |   1.3 |  0.26
Other   |            | 0.01041    |            |       |  0.20

Nlocal:        144.000 ave         163 max         119 min
Histogram: 1 0 0 0 1 0 0 0 1 1
Nghost:        2685.50 ave        2800 max        2564 min
Histogram: 1 1 0 0 0 0 0 0 1 1
Neighs:         0.00000 ave           0 max           0 min
Histogram: 4 0 0 0 0 0 0 0 0 0
FullNghs:      51405.5 ave       60510 max       40064 min
Histogram: 1 0 0 1 0 0 0 0 1 1

Total # of neighbors = 205622
Ave neighs/atom = 356.98264
Ave special neighs/atom = 0.0000000
Neighbor list builds = 34
Dangerous builds = 0
next var
jump input.lammps loop
change_box all z scale 1.005 remap
Changing box ...
  orthogonal box = (1.2258943 1.2587857 -3.5291100) to (19.359683 19.326792 24.114688)
run 2000
Per MPI rank memory allocation (min/avg/max) = 7.237 | 7.237 | 7.238 Mbytes
Step Temp E_pair E_mol TotEng Press 
   78000    298.38338   -5095.5775            0   -5073.4002   -79411.792 
   79000    298.33163   -5096.6115            0   -5074.4381   -73932.845 
   80000    299.64236   -5096.4245            0   -5074.1537   -71871.667 
Loop time of 5.28614 on 4 procs for 2000 steps with 576 atoms

Performance: 32.689 ns/day, 0.734 hours/ns, 378.348 timesteps/s
99.3% CPU use with 4 MPI tasks x 1 OpenMP threads

MPI task timing breakdown:
Section |  min time  |  avg time  |  max time  |%varavg| %total
---------------------------------------------------------------
Pair    | 3.276      | 4.2108     | 4.9649     |  32.2 | 79.66
Bond    | 0.00022484 | 0.00023739 | 0.00026421 |   0.0 |  0.00
Neigh   | 0.042172   | 0.051211   | 0.059056   |   2.9 |  0.97
Comm    | 0.23789    | 0.99764    | 1.9393     |  66.6 | 18.87
Output  | 0.00060344 | 0.00061265 | 0.00063601 |   0.0 |  0.01
Modify  | 0.0127     | 0.014512   | 0.016377   |   1.4 |  0.27
Other   |            | 0.01113    |            |       |  0.21

Nlocal:        144.000 ave         165 max         119 min
Histogram: 1 0 0 1 0 0 0 1 0 1
Nghost:        2684.25 ave        2798 max        2564 min
Histogram: 1 1 0 0 0 0 0 0 1 1
Neighs:         0.00000 ave           0 max           0 min
Histogram: 4 0 0 0 0 0 0 0 0 0
FullNghs:      51120.0 ave       60856 max       39866 min
Histogram: 1 0 0 1 0 0 0 0 1 1

Total # of neighbors = 204480
Ave neighs/atom = 355.00000
Ave special neighs/atom = 0.0000000
Neighbor list builds = 34
Dangerous builds = 0
next var
jump input.lammps loop
change_box all z scale 1.005 remap
Changing box ...
  orthogonal box = (1.2258943 1.2587857 -3.5982195) to (19.359683 19.326792 24.183797)
run 2000
Per MPI rank memory allocation (min/avg/max) = 7.237 | 7.237 | 7.238 Mbytes
Step Temp E_pair E_mol TotEng Press 
   80000    299.64236   -5093.2121            0   -5070.9413   -80409.044 
   81000    303.22003   -5095.8363            0   -5073.2996   -74772.863 
   82000    276.01938   -5092.9791            0   -5072.4641   -78372.267 
Loop time of 5.74996 on 4 procs for 2000 steps with 576 atoms

Performance: 30.052 ns/day, 0.799 hours/ns, 347.829 timesteps/s
99.3% CPU use with 4 MPI tasks x 1 OpenMP threads

MPI task timing breakdown:
Section |  min time  |  avg time  |  max time  |%varavg| %total
---------------------------------------------------------------
Pair    | 3.3305     | 4.4278     | 5.3561     |  36.3 | 77.01
Bond    | 0.00023524 | 0.00025387 | 0.00029138 |   0.0 |  0.00
Neigh   | 0.041128   | 0.050523   | 0.058054   |   2.9 |  0.88
Comm    | 0.30824    | 1.2418     | 2.3462     |  68.9 | 21.60
Output  | 0.00050302 | 0.0005108  | 0.00053079 |   0.0 |  0.01
Modify  | 0.014857   | 0.016814   | 0.018787   |   1.4 |  0.29
Other   |            | 0.01226    |            |       |  0.21

Nlocal:        144.000 ave         165 max         119 min
Histogram: 1 0 0 1 0 0 0 1 0 1
Nghost:        2683.75 ave        2802 max        2564 min
Histogram: 1 1 0 0 0 0 0 0 1 1
Neighs:         0.00000 ave           0 max           0 min
Histogram: 4 0 0 0 0 0 0 0 0 0
FullNghs:      50876.5 ave       60588 max       39535 min
Histogram: 1 0 0 1 0 0 0 0 1 1

Total # of neighbors = 203506
Ave neighs/atom = 353.30903
Ave special neighs/atom = 0.0000000
Neighbor list builds = 32
Dangerous builds = 0
next var
jump input.lammps loop
change_box all z scale 1.005 remap
Changing box ...
  orthogonal box = (1.2258943 1.2587857 -3.6676746) to (19.359683 19.326792 24.253252)
run 2000
Per MPI rank memory allocation (min/avg/max) = 7.237 | 7.237 | 7.238 Mbytes
Step Temp E_pair E_mol TotEng Press 
   82000    276.01938   -5089.5866            0   -5069.0715   -86754.623 
   83000    310.77228   -5092.3192            0   -5069.2211   -72720.199 
   84000    296.98395   -5093.5005            0   -5071.4272   -70351.985 
Loop time of 5.84272 on 4 procs for 2000 steps with 576 atoms

Performance: 29.575 ns/day, 0.811 hours/ns, 342.306 timesteps/s
99.6% CPU use with 4 MPI tasks x 1 OpenMP threads

MPI task timing breakdown:
Section |  min time  |  avg time  |  max time  |%varavg| %total
---------------------------------------------------------------
Pair    | 3.353      | 4.3341     | 5.5452     |  41.5 | 74.18
Bond    | 0.00021623 | 0.00023537 | 0.00027444 |   0.0 |  0.00
Neigh   | 0.043213   | 0.051072   | 0.059437   |   2.9 |  0.87
Comm    | 0.21211    | 1.4288     | 2.4148     |  72.6 | 24.46
Output  | 0.00045993 | 0.00046853 | 0.00048855 |   0.0 |  0.01
Modify  | 0.013422   | 0.016126   | 0.018655   |   2.0 |  0.28
Other   |            | 0.01189    |            |       |  0.20

Nlocal:        144.000 ave         164 max         122 min
Histogram: 1 0 0 1 0 0 0 1 0 1
Nghost:        2687.25 ave        2807 max        2583 min
Histogram: 2 0 0 0 0 0 0 1 0 1
Neighs:         0.00000 ave           0 max           0 min
Histogram: 4 0 0 0 0 0 0 0 0 0
FullNghs:      50614.0 ave       59975 max       40383 min
Histogram: 1 0 1 0 0 0 0 1 0 1

Total # of neighbors = 202456
Ave neighs/atom = 351.48611
Ave special neighs/atom = 0.0000000
Neighbor list builds = 33
Dangerous builds = 0
next var
jump input.lammps loop
change_box all z scale 1.005 remap
Changing box ...
  orthogonal box = (1.2258943 1.2587857 -3.7374769) to (19.359683 19.326792 24.323055)
run 2000
Per MPI rank memory allocation (min/avg/max) = 7.237 | 7.237 | 7.238 Mbytes
Step Temp E_pair E_mol TotEng Press 
   84000    296.98395   -5090.3566            0   -5068.2833   -78873.404 
   85000     295.3679    -5093.544            0   -5071.5909   -49538.377 
   86000    311.73402   -5095.4127            0   -5072.2432   -50327.179 
Loop time of 6.34735 on 4 procs for 2000 steps with 576 atoms

Performance: 27.224 ns/day, 0.882 hours/ns, 315.092 timesteps/s
99.0% CPU use with 4 MPI tasks x 1 OpenMP threads

MPI task timing breakdown:
Section |  min time  |  avg time  |  max time  |%varavg| %total
---------------------------------------------------------------
Pair    | 3.6242     | 4.7322     | 5.9043     |  44.5 | 74.55
Bond    | 0.00036027 | 0.00037823 | 0.00039792 |   0.0 |  0.01
Neigh   | 0.053975   | 0.064217   | 0.072383   |   3.2 |  1.01
Comm    | 0.33258    | 1.5099     | 2.6252     |  79.3 | 23.79
Output  | 0.00043859 | 0.00044605 | 0.00046307 |   0.0 |  0.01
Modify  | 0.021943   | 0.024303   | 0.02665    |   1.5 |  0.38
Other   |            | 0.01585    |            |       |  0.25

Nlocal:        144.000 ave         165 max         119 min
Histogram: 1 0 1 0 0 0 0 0 0 2
Nghost:        2668.25 ave        2814 max        2531 min
Histogram: 2 0 0 0 0 0 0 0 1 1
Neighs:         0.00000 ave           0 max           0 min
Histogram: 4 0 0 0 0 0 0 0 0 0
FullNghs:      50623.0 ave       61535 max       38539 min
Histogram: 1 1 0 0 0 0 0 0 0 2

Total # of neighbors = 202492
Ave neighs/atom = 351.54861
Ave special neighs/atom = 0.0000000
Neighbor list builds = 37
Dangerous builds = 0
next var
jump input.lammps loop
change_box all z scale 1.005 remap
Changing box ...
  orthogonal box = (1.2258943 1.2587857 -3.8076282) to (19.359683 19.326792 24.393206)
run 2000
Per MPI rank memory allocation (min/avg/max) = 7.237 | 7.238 | 7.238 Mbytes
Step Temp E_pair E_mol TotEng Press 
   86000    311.73402   -5093.1451            0   -5069.9756   -59345.365 
   87000    298.17675    -5096.482            0   -5074.3202   -49337.001 
   88000    270.74135   -5098.3015            0   -5078.1787    -49829.19 
Loop time of 6.38402 on 4 procs for 2000 steps with 576 atoms

Performance: 27.068 ns/day, 0.887 hours/ns, 313.282 timesteps/s
99.2% CPU use with 4 MPI tasks x 1 OpenMP threads

MPI task timing breakdown:
Section |  min time  |  avg time  |  max time  |%varavg| %total
---------------------------------------------------------------
Pair    | 3.4382     | 4.5779     | 5.8926     |  51.6 | 71.71
Bond    | 0.00030743 | 0.00032504 | 0.0003501  |   0.0 |  0.01
Neigh   | 0.050607   | 0.061286   | 0.072621   |   4.3 |  0.96
Comm    | 0.38407    | 1.7063     | 2.8527     |  85.0 | 26.73
Output  | 0.00074853 | 0.00076017 | 0.00079266 |   0.0 |  0.01
Modify  | 0.019413   | 0.022603   | 0.025746   |   2.1 |  0.35
Other   |            | 0.01481    |            |       |  0.23

Nlocal:        144.000 ave         166 max         118 min
Histogram: 1 1 0 0 0 0 0 0 0 2
Nghost:        2663.50 ave        2809 max        2511 min
Histogram: 1 1 0 0 0 0 0 0 0 2
Neighs:         0.00000 ave           0 max           0 min
Histogram: 4 0 0 0 0 0 0 0 0 0
FullNghs:      50477.0 ave       61594 max       38046 min
Histogram: 1 1 0 0 0 0 0 0 0 2

Total # of neighbors = 201908
Ave neighs/atom = 350.53472
Ave special neighs/atom = 0.0000000
Neighbor list builds = 38
Dangerous builds = 0
next var
jump input.lammps loop
change_box all z scale 1.005 remap
Changing box ...
  orthogonal box = (1.2258943 1.2587857 -3.8781303) to (19.359683 19.326792 24.463708)
run 2000
Per MPI rank memory allocation (min/avg/max) = 7.237 | 7.238 | 7.238 Mbytes
Step Temp E_pair E_mol TotEng Press 
   88000    270.74135   -5096.0166            0   -5075.8939   -58884.637 
   89000    301.45124   -5094.7367            0   -5072.3315   -50644.954 
   90000    308.26112   -5095.1192            0   -5072.2078   -50665.984 
Loop time of 6.3659 on 4 procs for 2000 steps with 576 atoms

Performance: 27.145 ns/day, 0.884 hours/ns, 314.174 timesteps/s
99.3% CPU use with 4 MPI tasks x 1 OpenMP threads

MPI task timing breakdown:
Section |  min time  |  avg time  |  max time  |%varavg| %total
---------------------------------------------------------------
Pair    | 3.3296     | 4.5395     | 5.9187     |  52.8 | 71.31
Bond    | 0.00032087 | 0.0003641  | 0.00040326 |   0.0 |  0.01
Neigh   | 0.043733   | 0.054861   | 0.065287   |   4.2 |  0.86
Comm    | 0.34347    | 1.7284     | 2.9446     |  85.9 | 27.15
Output  | 0.00068685 | 0.00069564 | 0.00071916 |   0.0 |  0.01
Modify  | 0.021624   | 0.025867   | 0.029999   |   2.6 |  0.41
Other   |            | 0.01621    |            |       |  0.25

Nlocal:        144.000 ave         168 max         117 min
Histogram: 1 1 0 0 0 0 0 0 0 2
Nghost:        2656.75 ave        2802 max        2524 min
Histogram: 2 0 0 0 0 0 0 0 1 1
Neighs:         0.00000 ave           0 max           0 min
Histogram: 4 0 0 0 0 0 0 0 0 0
FullNghs:      50180.5 ave       61720 max       37423 min
Histogram: 1 1 0 0 0 0 0 0 0 2

Total # of neighbors = 200722
Ave neighs/atom = 348.47569
Ave special neighs/atom = 0.0000000
Neighbor list builds = 34
Dangerous builds = 0
next var
jump input.lammps loop
run 20000
Per MPI rank memory allocation (min/avg/max) = 7.237 | 7.238 | 7.238 Mbytes
Step Temp E_pair E_mol TotEng Press 
   90000    308.26112   -5095.1192            0   -5072.2078   -50665.984 
   91000    308.81151   -5096.1197            0   -5073.1674   -49644.814 
   92000    303.38029   -5096.0946            0    -5073.546   -51840.124 
   93000    315.14702   -5096.3989            0   -5072.9758   -51924.198 
   94000    306.79936   -5096.4453            0   -5073.6425    -51816.02 
   95000     311.8345   -5095.5161            0   -5072.3391   -52921.683 
   96000    296.21149   -5096.0719            0   -5074.0562   -52804.411 
   97000    305.49056   -5096.0429            0   -5073.3374   -47403.455 
   98000    312.40141    -5096.214            0   -5072.9949   -51173.408 
   99000    296.53746   -5096.5222            0   -5074.4822   -54712.351 
  100000    285.94676   -5095.1612            0   -5073.9083   -47781.358 
  101000    302.95026   -5096.1238            0   -5073.6071   -53272.106 
  102000    307.66038   -5095.4061            0   -5072.5393   -53161.665 
  103000    305.60318   -5096.7947            0   -5074.0809   -48339.699 
  104000    290.84559   -5097.3756            0   -5075.7586   -53611.305 
  105000    304.55282   -5095.8253            0   -5073.1895   -46036.762 
  106000    289.41815   -5096.1062            0   -5074.5953   -48273.766 
  107000    297.93072   -5096.1667            0   -5074.0231   -53412.862 
  108000     301.5371   -5095.4669            0   -5073.0553   -47194.255 
  109000    299.63354    -5097.146            0   -5074.8758   -47886.475 
  110000     301.6313   -5095.0789            0   -5072.6603    -46945.38 
Loop time of 59.2541 on 4 procs for 20000 steps with 576 atoms

Performance: 29.163 ns/day, 0.823 hours/ns, 337.529 timesteps/s
99.3% CPU use with 4 MPI tasks x 1 OpenMP threads

MPI task timing breakdown:
Section |  min time  |  avg time  |  max time  |%varavg| %total
---------------------------------------------------------------
Pair    | 32.395     | 43.344     | 55.306     | 156.1 | 73.15
Bond    | 0.0026257  | 0.0029739  | 0.0033073  |   0.5 |  0.01
Neigh   | 0.39849    | 0.48593    | 0.56677    |  11.6 |  0.82
Comm    | 3.068      | 15.074     | 26.07      | 265.8 | 25.44
Output  | 0.0057875  | 0.0058742  | 0.0061063  |   0.2 |  0.01
Modify  | 0.17209    | 0.20492    | 0.2371     |   7.1 |  0.35
Other   |            | 0.1371     |            |       |  0.23

Nlocal:        144.000 ave         165 max         120 min
Histogram: 1 1 0 0 0 0 0 0 0 2
Nghost:        2654.25 ave        2789 max        2513 min
Histogram: 1 1 0 0 0 0 0 0 0 2
Neighs:         0.00000 ave           0 max           0 min
Histogram: 4 0 0 0 0 0 0 0 0 0
FullNghs:      50280.0 ave       61116 max       38447 min
Histogram: 1 1 0 0 0 0 0 0 0 2

Total # of neighbors = 201120
Ave neighs/atom = 349.16667
Ave special neighs/atom = 0.0000000
Neighbor list builds = 310
Dangerous builds = 0
write_data dilatedSiO.data
System init for write_data ...
Total wall time: 0:05:01
