ITEM: TIMESTEP
10
ITEM: NUMBER OF ATOMS
4948
ITEM: BOX BOUNDS pp pp pp
-1.6160000000000000e+01 1.6160000000000000e+01
-1.6160000000000000e+01 1.6160000000000000e+01
-5.2520000000000003e+01 5.2520000000000003e+01
ITEM: ATOMS id type xs ys zs
1 5 0 0 0.0384615
2 5 0.0625 0.0625 0.0384615
3 5 0.0625 0 0.0576923
4 5 0 0.0625 0.0576923
5 5 0.125 0 0.0384615
6 5 0.1875 0.0625 0.0384615
7 5 0.1875 0 0.0576923
8 5 0.125 0.0625 0.0576923
33 5 0 0.125 0.0384615
34 5 0.0625 0.1875 0.0384615
35 5 0.0625 0.125 0.0576923
36 5 0 0.1875 0.0576923
37 5 0.125 0.125 0.0384615
38 5 0.1875 0.1875 0.0384615
39 5 0.1875 0.125 0.0576923
40 5 0.125 0.1875 0.0576923
9 5 0.25 0 0.0384615
10 5 0.3125 0.0625 0.0384615
11 5 0.3125 0 0.0576923
12 5 0.25 0.0625 0.0576923
13 5 0.375 0 0.0384615
14 5 0.4375 0.0625 0.0384615
15 5 0.4375 0 0.0576923
16 5 0.375 0.0625 0.0576923
41 5 0.25 0.125 0.0384615
42 5 0.3125 0.1875 0.0384615
43 5 0.3125 0.125 0.0576923
44 5 0.25 0.1875 0.0576923
45 5 0.375 0.125 0.0384615
46 5 0.4375 0.1875 0.0384615
47 5 0.4375 0.125 0.0576923
48 5 0.375 0.1875 0.0576923
17 5 0.5 0 0.0384615
18 5 0.5625 0.0625 0.0384615
19 5 0.5625 0 0.0576923
20 5 0.5 0.0625 0.0576923
21 5 0.625 0 0.0384615
22 5 0.6875 0.0625 0.0384615
23 5 0.6875 0 0.0576923
24 5 0.625 0.0625 0.0576923
49 5 0.5 0.125 0.0384615
50 5 0.5625 0.1875 0.0384615
51 5 0.5625 0.125 0.0576923
52 5 0.5 0.1875 0.0576923
53 5 0.625 0.125 0.0384615
54 5 0.6875 0.1875 0.0384615
55 5 0.6875 0.125 0.0576923
56 5 0.625 0.1875 0.0576923
25 5 0.75 0 0.0384615
26 5 0.8125 0.0625 0.0384615
27 5 0.8125 0 0.0576923
28 5 0.75 0.0625 0.0576923
29 5 0.875 0 0.0384615
30 5 0.9375 0.0625 0.0384615
31 5 0.9375 0 0.0576923
32 5 0.875 0.0625 0.0576923
57 5 0.75 0.125 0.0384615
58 5 0.8125 0.1875 0.0384615
59 5 0.8125 0.125 0.0576923
60 5 0.75 0.1875 0.0576923
61 5 0.875 0.125 0.0384615
62 5 0.9375 0.1875 0.0384615
63 5 0.9375 0.125 0.0576923
64 5 0.875 0.1875 0.0576923
65 5 0 0.25 0.0384615
66 5 0.0625 0.3125 0.0384615
67 5 0.0625 0.25 0.0576923
68 5 0 0.3125 0.0576923
69 5 0.125 0.25 0.0384615
70 5 0.1875 0.3125 0.0384615
71 5 0.1875 0.25 0.0576923
72 5 0.125 0.3125 0.0576923
97 5 0 0.375 0.0384615
98 5 0.0625 0.4375 0.0384615
99 5 0.0625 0.375 0.0576923
100 5 0 0.4375 0.0576923
101 5 0.125 0.375 0.0384615
102 5 0.1875 0.4375 0.0384615
103 5 0.1875 0.375 0.0576923
104 5 0.125 0.4375 0.0576923
73 5 0.25 0.25 0.0384615
74 5 0.3125 0.3125 0.0384615
75 5 0.3125 0.25 0.0576923
76 5 0.25 0.3125 0.0576923
77 5 0.375 0.25 0.0384615
78 5 0.4375 0.3125 0.0384615
79 5 0.4375 0.25 0.0576923
80 5 0.375 0.3125 0.0576923
105 5 0.25 0.375 0.0384615
106 5 0.3125 0.4375 0.0384615
107 5 0.3125 0.375 0.0576923
108 5 0.25 0.4375 0.0576923
109 5 0.375 0.375 0.0384615
110 5 0.4375 0.4375 0.0384615
111 5 0.4375 0.375 0.0576923
112 5 0.375 0.4375 0.0576923
81 5 0.5 0.25 0.0384615
82 5 0.5625 0.3125 0.0384615
83 5 0.5625 0.25 0.0576923
84 5 0.5 0.3125 0.0576923
85 5 0.625 0.25 0.0384615
86 5 0.6875 0.3125 0.0384615
87 5 0.6875 0.25 0.0576923
88 5 0.625 0.3125 0.0576923
113 5 0.5 0.375 0.0384615
114 5 0.5625 0.4375 0.0384615
115 5 0.5625 0.375 0.0576923
116 5 0.5 0.4375 0.0576923
117 5 0.625 0.375 0.0384615
118 5 0.6875 0.4375 0.0384615
119 5 0.6875 0.375 0.0576923
120 5 0.625 0.4375 0.0576923
89 5 0.75 0.25 0.0384615
90 5 0.8125 0.3125 0.0384615
91 5 0.8125 0.25 0.0576923
92 5 0.75 0.3125 0.0576923
93 5 0.875 0.25 0.0384615
94 5 0.9375 0.3125 0.0384615
95 5 0.9375 0.25 0.0576923
96 5 0.875 0.3125 0.0576923
121 5 0.75 0.375 0.0384615
122 5 0.8125 0.4375 0.0384615
123 5 0.8125 0.375 0.0576923
124 5 0.75 0.4375 0.0576923
125 5 0.875 0.375 0.0384615
126 5 0.9375 0.4375 0.0384615
127 5 0.9375 0.375 0.0576923
128 5 0.875 0.4375 0.0576923
129 5 0 0.5 0.0384615
130 5 0.0625 0.5625 0.0384615
131 5 0.0625 0.5 0.0576923
132 5 0 0.5625 0.0576923
133 5 0.125 0.5 0.0384615
134 5 0.1875 0.5625 0.0384615
135 5 0.1875 0.5 0.0576923
136 5 0.125 0.5625 0.0576923
161 5 0 0.625 0.0384615
162 5 0.0625 0.6875 0.0384615
163 5 0.0625 0.625 0.0576923
164 5 0 0.6875 0.0576923
165 5 0.125 0.625 0.0384615
166 5 0.1875 0.6875 0.0384615
167 5 0.1875 0.625 0.0576923
168 5 0.125 0.6875 0.0576923
137 5 0.25 0.5 0.0384615
138 5 0.3125 0.5625 0.0384615
139 5 0.3125 0.5 0.0576923
140 5 0.25 0.5625 0.0576923
141 5 0.375 0.5 0.0384615
142 5 0.4375 0.5625 0.0384615
143 5 0.4375 0.5 0.0576923
144 5 0.375 0.5625 0.0576923
169 5 0.25 0.625 0.0384615
170 5 0.3125 0.6875 0.0384615
171 5 0.3125 0.625 0.0576923
172 5 0.25 0.6875 0.0576923
173 5 0.375 0.625 0.0384615
174 5 0.4375 0.6875 0.0384615
175 5 0.4375 0.625 0.0576923
176 5 0.375 0.6875 0.0576923
145 5 0.5 0.5 0.0384615
146 5 0.5625 0.5625 0.0384615
147 5 0.5625 0.5 0.0576923
148 5 0.5 0.5625 0.0576923
149 5 0.625 0.5 0.0384615
150 5 0.6875 0.5625 0.0384615
151 5 0.6875 0.5 0.0576923
152 5 0.625 0.5625 0.0576923
177 5 0.5 0.625 0.0384615
178 5 0.5625 0.6875 0.0384615
179 5 0.5625 0.625 0.0576923
180 5 0.5 0.6875 0.0576923
181 5 0.625 0.625 0.0384615
182 5 0.6875 0.6875 0.0384615
183 5 0.6875 0.625 0.0576923
184 5 0.625 0.6875 0.0576923
153 5 0.75 0.5 0.0384615
154 5 0.8125 0.5625 0.0384615
155 5 0.8125 0.5 0.0576923
156 5 0.75 0.5625 0.0576923
157 5 0.875 0.5 0.0384615
158 5 0.9375 0.5625 0.0384615
159 5 0.9375 0.5 0.0576923
160 5 0.875 0.5625 0.0576923
185 5 0.75 0.625 0.0384615
186 5 0.8125 0.6875 0.0384615
187 5 0.8125 0.625 0.0576923
188 5 0.75 0.6875 0.0576923
189 5 0.875 0.625 0.0384615
190 5 0.9375 0.6875 0.0384615
191 5 0.9375 0.625 0.0576923
192 5 0.875 0.6875 0.0576923
193 5 0 0.75 0.0384615
194 5 0.0625 0.8125 0.0384615
195 5 0.0625 0.75 0.0576923
196 5 0 0.8125 0.0576923
197 5 0.125 0.75 0.0384615
198 5 0.1875 0.8125 0.0384615
199 5 0.1875 0.75 0.0576923
200 5 0.125 0.8125 0.0576923
225 5 0 0.875 0.0384615
226 5 0.0625 0.9375 0.0384615
227 5 0.0625 0.875 0.0576923
228 5 0 0.9375 0.0576923
229 5 0.125 0.875 0.0384615
230 5 0.1875 0.9375 0.0384615
231 5 0.1875 0.875 0.0576923
232 5 0.125 0.9375 0.0576923
201 5 0.25 0.75 0.0384615
202 5 0.3125 0.8125 0.0384615
203 5 0.3125 0.75 0.0576923
204 5 0.25 0.8125 0.0576923
205 5 0.375 0.75 0.0384615
206 5 0.4375 0.8125 0.0384615
207 5 0.4375 0.75 0.0576923
208 5 0.375 0.8125 0.0576923
233 5 0.25 0.875 0.0384615
234 5 0.3125 0.9375 0.0384615
235 5 0.3125 0.875 0.0576923
236 5 0.25 0.9375 0.0576923
237 5 0.375 0.875 0.0384615
238 5 0.4375 0.9375 0.0384615
239 5 0.4375 0.875 0.0576923
240 5 0.375 0.9375 0.0576923
209 5 0.5 0.75 0.0384615
210 5 0.5625 0.8125 0.0384615
211 5 0.5625 0.75 0.0576923
212 5 0.5 0.8125 0.0576923
213 5 0.625 0.75 0.0384615
214 5 0.6875 0.8125 0.0384615
215 5 0.6875 0.75 0.0576923
216 5 0.625 0.8125 0.0576923
241 5 0.5 0.875 0.0384615
242 5 0.5625 0.9375 0.0384615
243 5 0.5625 0.875 0.0576923
244 5 0.5 0.9375 0.0576923
245 5 0.625 0.875 0.0384615
246 5 0.6875 0.9375 0.0384615
247 5 0.6875 0.875 0.0576923
248 5 0.625 0.9375 0.0576923
217 5 0.75 0.75 0.0384615
218 5 0.8125 0.8125 0.0384615
219 5 0.8125 0.75 0.0576923
220 5 0.75 0.8125 0.0576923
221 5 0.875 0.75 0.0384615
222 5 0.9375 0.8125 0.0384615
223 5 0.9375 0.75 0.0576923
224 5 0.875 0.8125 0.0576923
249 5 0.75 0.875 0.0384615
250 5 0.8125 0.9375 0.0384615
251 5 0.8125 0.875 0.0576923
252 5 0.75 0.9375 0.0576923
253 5 0.875 0.875 0.0384615
254 5 0.9375 0.9375 0.0384615
255 5 0.9375 0.875 0.0576923
256 5 0.875 0.9375 0.0576923
257 5 0 0 0.0769231
258 5 0.0625 0.0625 0.0769231
259 5 0.0625 0 0.0961538
260 5 0 0.0625 0.0961538
261 5 0.125 0 0.0769231
262 5 0.1875 0.0625 0.0769231
263 5 0.1875 0 0.0961538
264 5 0.125 0.0625 0.0961538
289 5 0 0.125 0.0769231
290 5 0.0625 0.1875 0.0769231
291 5 0.0625 0.125 0.0961538
292 5 0 0.1875 0.0961538
293 5 0.125 0.125 0.0769231
294 5 0.1875 0.1875 0.0769231
295 5 0.1875 0.125 0.0961538
296 5 0.125 0.1875 0.0961538
513 5 0 0 0.115385
514 5 0.0625 0.0625 0.115385
515 5 0.125 0 0.115385
516 5 0.1875 0.0625 0.115385
529 5 0 0.125 0.115385
530 5 0.0625 0.1875 0.115385
531 5 0.125 0.125 0.115385
532 5 0.1875 0.1875 0.115385
265 5 0.25 0 0.0769231
266 5 0.3125 0.0625 0.0769231
267 5 0.3125 0 0.0961538
268 5 0.25 0.0625 0.0961538
269 5 0.375 0 0.0769231
270 5 0.4375 0.0625 0.0769231
271 5 0.4375 0 0.0961538
272 5 0.375 0.0625 0.0961538
297 5 0.25 0.125 0.0769231
298 5 0.3125 0.1875 0.0769231
299 5 0.3125 0.125 0.0961538
300 5 0.25 0.1875 0.0961538
301 5 0.375 0.125 0.0769231
302 5 0.4375 0.1875 0.0769231
303 5 0.4375 0.125 0.0961538
304 5 0.375 0.1875 0.0961538
517 5 0.25 0 0.115385
518 5 0.3125 0.0625 0.115385
519 5 0.375 0 0.115385
520 5 0.4375 0.0625 0.115385
533 5 0.25 0.125 0.115385
534 5 0.3125 0.1875 0.115385
535 5 0.375 0.125 0.115385
536 5 0.4375 0.1875 0.115385
273 5 0.5 0 0.0769231
274 5 0.5625 0.0625 0.0769231
275 5 0.5625 0 0.0961538
276 5 0.5 0.0625 0.0961538
277 5 0.625 0 0.0769231
278 5 0.6875 0.0625 0.0769231
279 5 0.6875 0 0.0961538
280 5 0.625 0.0625 0.0961538
305 5 0.5 0.125 0.0769231
306 5 0.5625 0.1875 0.0769231
307 5 0.5625 0.125 0.0961538
308 5 0.5 0.1875 0.0961538
309 5 0.625 0.125 0.0769231
310 5 0.6875 0.1875 0.0769231
311 5 0.6875 0.125 0.0961538
312 5 0.625 0.1875 0.0961538
521 5 0.5 0 0.115385
522 5 0.5625 0.0625 0.115385
523 5 0.625 0 0.115385
524 5 0.6875 0.0625 0.115385
537 5 0.5 0.125 0.115385
538 5 0.5625 0.1875 0.115385
539 5 0.625 0.125 0.115385
540 5 0.6875 0.1875 0.115385
281 5 0.75 0 0.0769231
282 5 0.8125 0.0625 0.0769231
283 5 0.8125 0 0.0961538
284 5 0.75 0.0625 0.0961538
285 5 0.875 0 0.0769231
286 5 0.9375 0.0625 0.0769231
287 5 0.9375 0 0.0961538
288 5 0.875 0.0625 0.0961538
313 5 0.75 0.125 0.0769231
314 5 0.8125 0.1875 0.0769231
315 5 0.8125 0.125 0.0961538
316 5 0.75 0.1875 0.0961538
317 5 0.875 0.125 0.0769231
318 5 0.9375 0.1875 0.0769231
319 5 0.9375 0.125 0.0961538
320 5 0.875 0.1875 0.0961538
525 5 0.75 0 0.115385
526 5 0.8125 0.0625 0.115385
527 5 0.875 0 0.115385
528 5 0.9375 0.0625 0.115385
541 5 0.75 0.125 0.115385
542 5 0.8125 0.1875 0.115385
543 5 0.875 0.125 0.115385
544 5 0.9375 0.1875 0.115385
321 5 0 0.25 0.0769231
322 5 0.0625 0.3125 0.0769231
323 5 0.0625 0.25 0.0961538
324 5 0 0.3125 0.0961538
325 5 0.125 0.25 0.0769231
326 5 0.1875 0.3125 0.0769231
327 5 0.1875 0.25 0.0961538
328 5 0.125 0.3125 0.0961538
353 5 0 0.375 0.0769231
354 5 0.0625 0.4375 0.0769231
355 5 0.0625 0.375 0.0961538
356 5 0 0.4375 0.0961538
357 5 0.125 0.375 0.0769231
358 5 0.1875 0.4375 0.0769231
359 5 0.1875 0.375 0.0961538
360 5 0.125 0.4375 0.0961538
545 5 0 0.25 0.115385
546 5 0.0625 0.3125 0.115385
547 5 0.125 0.25 0.115385
548 5 0.1875 0.3125 0.115385
561 5 0 0.375 0.115385
562 5 0.0625 0.4375 0.115385
563 5 0.125 0.375 0.115385
564 5 0.1875 0.4375 0.115385
329 5 0.25 0.25 0.0769231
330 5 0.3125 0.3125 0.0769231
331 5 0.3125 0.25 0.0961538
332 5 0.25 0.3125 0.0961538
333 5 0.375 0.25 0.0769231
334 5 0.4375 0.3125 0.0769231
335 5 0.4375 0.25 0.0961538
336 5 0.375 0.3125 0.0961538
361 5 0.25 0.375 0.0769231
362 5 0.3125 0.4375 0.0769231
363 5 0.3125 0.375 0.0961538
364 5 0.25 0.4375 0.0961538
365 5 0.375 0.375 0.0769231
366 5 0.4375 0.4375 0.0769231
367 5 0.4375 0.375 0.0961538
368 5 0.375 0.4375 0.0961538
549 5 0.25 0.25 0.115385
550 5 0.3125 0.3125 0.115385
551 5 0.375 0.25 0.115385
552 5 0.4375 0.3125 0.115385
565 5 0.25 0.375 0.115385
566 5 0.3125 0.4375 0.115385
567 5 0.375 0.375 0.115385
568 5 0.4375 0.4375 0.115385
337 5 0.5 0.25 0.0769231
338 5 0.5625 0.3125 0.0769231
339 5 0.5625 0.25 0.0961538
340 5 0.5 0.3125 0.0961538
341 5 0.625 0.25 0.0769231
342 5 0.6875 0.3125 0.0769231
343 5 0.6875 0.25 0.0961538
344 5 0.625 0.3125 0.0961538
369 5 0.5 0.375 0.0769231
370 5 0.5625 0.4375 0.0769231
371 5 0.5625 0.375 0.0961538
372 5 0.5 0.4375 0.0961538
373 5 0.625 0.375 0.0769231
374 5 0.6875 0.4375 0.0769231
375 5 0.6875 0.375 0.0961538
376 5 0.625 0.4375 0.0961538
553 5 0.5 0.25 0.115385
554 5 0.5625 0.3125 0.115385
555 5 0.625 0.25 0.115385
556 5 0.6875 0.3125 0.115385
569 5 0.5 0.375 0.115385
570 5 0.5625 0.4375 0.115385
571 5 0.625 0.375 0.115385
572 5 0.6875 0.4375 0.115385
345 5 0.75 0.25 0.0769231
346 5 0.8125 0.3125 0.0769231
347 5 0.8125 0.25 0.0961538
348 5 0.75 0.3125 0.0961538
349 5 0.875 0.25 0.0769231
350 5 0.9375 0.3125 0.0769231
351 5 0.9375 0.25 0.0961538
352 5 0.875 0.3125 0.0961538
377 5 0.75 0.375 0.0769231
378 5 0.8125 0.4375 0.0769231
379 5 0.8125 0.375 0.0961538
380 5 0.75 0.4375 0.0961538
381 5 0.875 0.375 0.0769231
382 5 0.9375 0.4375 0.0769231
383 5 0.9375 0.375 0.0961538
384 5 0.875 0.4375 0.0961538
557 5 0.75 0.25 0.115385
558 5 0.8125 0.3125 0.115385
559 5 0.875 0.25 0.115385
560 5 0.9375 0.3125 0.115385
573 5 0.75 0.375 0.115385
574 5 0.8125 0.4375 0.115385
575 5 0.875 0.375 0.115385
576 5 0.9375 0.4375 0.115385
385 5 0 0.5 0.0769231
386 5 0.0625 0.5625 0.0769231
387 5 0.0625 0.5 0.0961538
388 5 0 0.5625 0.0961538
389 5 0.125 0.5 0.0769231
390 5 0.1875 0.5625 0.0769231
391 5 0.1875 0.5 0.0961538
392 5 0.125 0.5625 0.0961538
417 5 0 0.625 0.0769231
418 5 0.0625 0.6875 0.0769231
419 5 0.0625 0.625 0.0961538
420 5 0 0.6875 0.0961538
421 5 0.125 0.625 0.0769231
422 5 0.1875 0.6875 0.0769231
423 5 0.1875 0.625 0.0961538
424 5 0.125 0.6875 0.0961538
577 5 0 0.5 0.115385
578 5 0.0625 0.5625 0.115385
579 5 0.125 0.5 0.115385
580 5 0.1875 0.5625 0.115385
593 5 0 0.625 0.115385
594 5 0.0625 0.6875 0.115385
595 5 0.125 0.625 0.115385
596 5 0.1875 0.6875 0.115385
393 5 0.25 0.5 0.0769231
394 5 0.3125 0.5625 0.0769231
395 5 0.3125 0.5 0.0961538
396 5 0.25 0.5625 0.0961538
397 5 0.375 0.5 0.0769231
398 5 0.4375 0.5625 0.0769231
399 5 0.4375 0.5 0.0961538
400 5 0.375 0.5625 0.0961538
425 5 0.25 0.625 0.0769231
426 5 0.3125 0.6875 0.0769231
427 5 0.3125 0.625 0.0961538
428 5 0.25 0.6875 0.0961538
429 5 0.375 0.625 0.0769231
430 5 0.4375 0.6875 0.0769231
431 5 0.4375 0.625 0.0961538
432 5 0.375 0.6875 0.0961538
581 5 0.25 0.5 0.115385
582 5 0.3125 0.5625 0.115385
583 5 0.375 0.5 0.115385
584 5 0.4375 0.5625 0.115385
597 5 0.25 0.625 0.115385
598 5 0.3125 0.6875 0.115385
599 5 0.375 0.625 0.115385
600 5 0.4375 0.6875 0.115385
401 5 0.5 0.5 0.0769231
402 5 0.5625 0.5625 0.0769231
403 5 0.5625 0.5 0.0961538
404 5 0.5 0.5625 0.0961538
405 5 0.625 0.5 0.0769231
406 5 0.6875 0.5625 0.0769231
407 5 0.6875 0.5 0.0961538
408 5 0.625 0.5625 0.0961538
433 5 0.5 0.625 0.0769231
434 5 0.5625 0.6875 0.0769231
435 5 0.5625 0.625 0.0961538
436 5 0.5 0.6875 0.0961538
437 5 0.625 0.625 0.0769231
438 5 0.6875 0.6875 0.0769231
439 5 0.6875 0.625 0.0961538
440 5 0.625 0.6875 0.0961538
585 5 0.5 0.5 0.115385
586 5 0.5625 0.5625 0.115385
587 5 0.625 0.5 0.115385
588 5 0.6875 0.5625 0.115385
601 5 0.5 0.625 0.115385
602 5 0.5625 0.6875 0.115385
603 5 0.625 0.625 0.115385
604 5 0.6875 0.6875 0.115385
409 5 0.75 0.5 0.0769231
410 5 0.8125 0.5625 0.0769231
411 5 0.8125 0.5 0.0961538
412 5 0.75 0.5625 0.0961538
413 5 0.875 0.5 0.0769231
414 5 0.9375 0.5625 0.0769231
415 5 0.9375 0.5 0.0961538
416 5 0.875 0.5625 0.0961538
441 5 0.75 0.625 0.0769231
442 5 0.8125 0.6875 0.0769231
443 5 0.8125 0.625 0.0961538
444 5 0.75 0.6875 0.0961538
445 5 0.875 0.625 0.0769231
446 5 0.9375 0.6875 0.0769231
447 5 0.9375 0.625 0.0961538
448 5 0.875 0.6875 0.0961538
589 5 0.75 0.5 0.115385
590 5 0.8125 0.5625 0.115385
591 5 0.875 0.5 0.115385
592 5 0.9375 0.5625 0.115385
605 5 0.75 0.625 0.115385
606 5 0.8125 0.6875 0.115385
607 5 0.875 0.625 0.115385
608 5 0.9375 0.6875 0.115385
449 5 0 0.75 0.0769231
450 5 0.0625 0.8125 0.0769231
451 5 0.0625 0.75 0.0961538
452 5 0 0.8125 0.0961538
453 5 0.125 0.75 0.0769231
454 5 0.1875 0.8125 0.0769231
455 5 0.1875 0.75 0.0961538
456 5 0.125 0.8125 0.0961538
481 5 0 0.875 0.0769231
482 5 0.0625 0.9375 0.0769231
483 5 0.0625 0.875 0.0961538
484 5 0 0.9375 0.0961538
485 5 0.125 0.875 0.0769231
486 5 0.1875 0.9375 0.0769231
487 5 0.1875 0.875 0.0961538
488 5 0.125 0.9375 0.0961538
609 5 0 0.75 0.115385
610 5 0.0625 0.8125 0.115385
611 5 0.125 0.75 0.115385
612 5 0.1875 0.8125 0.115385
625 5 0 0.875 0.115385
626 5 0.0625 0.9375 0.115385
627 5 0.125 0.875 0.115385
628 5 0.1875 0.9375 0.115385
457 5 0.25 0.75 0.0769231
458 5 0.3125 0.8125 0.0769231
459 5 0.3125 0.75 0.0961538
460 5 0.25 0.8125 0.0961538
461 5 0.375 0.75 0.0769231
462 5 0.4375 0.8125 0.0769231
463 5 0.4375 0.75 0.0961538
464 5 0.375 0.8125 0.0961538
489 5 0.25 0.875 0.0769231
490 5 0.3125 0.9375 0.0769231
491 5 0.3125 0.875 0.0961538
492 5 0.25 0.9375 0.0961538
493 5 0.375 0.875 0.0769231
494 5 0.4375 0.9375 0.0769231
495 5 0.4375 0.875 0.0961538
496 5 0.375 0.9375 0.0961538
613 5 0.25 0.75 0.115385
614 5 0.3125 0.8125 0.115385
615 5 0.375 0.75 0.115385
616 5 0.4375 0.8125 0.115385
629 5 0.25 0.875 0.115385
630 5 0.3125 0.9375 0.115385
631 5 0.375 0.875 0.115385
632 5 0.4375 0.9375 0.115385
465 5 0.5 0.75 0.0769231
466 5 0.5625 0.8125 0.0769231
467 5 0.5625 0.75 0.0961538
468 5 0.5 0.8125 0.0961538
469 5 0.625 0.75 0.0769231
470 5 0.6875 0.8125 0.0769231
471 5 0.6875 0.75 0.0961538
472 5 0.625 0.8125 0.0961538
497 5 0.5 0.875 0.0769231
498 5 0.5625 0.9375 0.0769231
499 5 0.5625 0.875 0.0961538
500 5 0.5 0.9375 0.0961538
501 5 0.625 0.875 0.0769231
502 5 0.6875 0.9375 0.0769231
503 5 0.6875 0.875 0.0961538
504 5 0.625 0.9375 0.0961538
617 5 0.5 0.75 0.115385
618 5 0.5625 0.8125 0.115385
619 5 0.625 0.75 0.115385
620 5 0.6875 0.8125 0.115385
633 5 0.5 0.875 0.115385
634 5 0.5625 0.9375 0.115385
635 5 0.625 0.875 0.115385
636 5 0.6875 0.9375 0.115385
473 5 0.75 0.75 0.0769231
474 5 0.8125 0.8125 0.0769231
475 5 0.8125 0.75 0.0961538
476 5 0.75 0.8125 0.0961538
477 5 0.875 0.75 0.0769231
478 5 0.9375 0.8125 0.0769231
479 5 0.9375 0.75 0.0961538
480 5 0.875 0.8125 0.0961538
505 5 0.75 0.875 0.0769231
506 5 0.8125 0.9375 0.0769231
507 5 0.8125 0.875 0.0961538
508 5 0.75 0.9375 0.0961538
509 5 0.875 0.875 0.0769231
510 5 0.9375 0.9375 0.0769231
511 5 0.9375 0.875 0.0961538
512 5 0.875 0.9375 0.0961538
621 5 0.75 0.75 0.115385
622 5 0.8125 0.8125 0.115385
623 5 0.875 0.75 0.115385
624 5 0.9375 0.8125 0.115385
637 5 0.75 0.875 0.115385
638 5 0.8125 0.9375 0.115385
639 5 0.875 0.875 0.115385
640 5 0.9375 0.9375 0.115385
1281 1 0.00223143 0.011835 0.154215
1285 2 0.148342 0.00301356 0.155598
1286 2 0.103545 0.00888382 0.151734
1306 2 0.010205 0.10857 0.149363
1308 1 0.124533 0.113885 0.155313
1309 2 0.148475 0.128567 0.152385
1310 2 0.101992 0.132548 0.153841
1311 1 0.24304 0.122147 0.150929
1313 2 0.236617 0.140543 0.157807
1332 1 0.1176 0.240423 0.15385
1333 2 0.147254 0.240454 0.153846
1335 1 0.242169 0.245798 0.151318
1336 2 0.240324 0.243793 0.160404
1474 2 0.0106627 0.0159082 0.187748
1476 1 0.122018 0.0114734 0.193058
1477 2 0.149064 0.000436568 0.191489
1480 2 0.243895 0.0233525 0.191711
1498 2 0.0226151 0.116466 0.191862
1500 1 0.119737 0.114481 0.191431
1501 2 0.142354 0.119002 0.197165
1502 2 0.112909 0.141517 0.188327
1503 1 0.241871 0.116094 0.192628
1505 2 0.236696 0.145132 0.191688
1522 2 0.0187446 0.249684 0.197024
1524 1 0.116275 0.24162 0.1922
1525 2 0.145611 0.237295 0.192191
1527 1 0.244624 0.240237 0.190856
1288 2 0.250455 0.0153116 0.148076
1292 2 0.374559 0.0225612 0.156549
1294 2 0.483697 0.00713562 0.158899
1312 2 0.270343 0.11231 0.152803
1314 1 0.374181 0.125415 0.157559
1315 2 0.362772 0.144482 0.151517
1316 2 0.388047 0.105103 0.152462
1317 1 0.497552 0.113155 0.15371
1319 2 0.489493 0.132589 0.16014
1339 2 0.355774 0.236375 0.152131
1343 2 0.496993 0.233438 0.159202
1482 1 0.385099 0.00420403 0.193901
1483 2 0.360508 0.0193353 0.191822
1487 2 0.478667 0.0113272 0.192838
1504 2 0.271433 0.113774 0.192607
1506 1 0.36744 0.11686 0.19083
1507 2 0.362742 0.145867 0.192055
1508 2 0.394818 0.112273 0.194038
1511 2 0.480671 0.115327 0.195667
1529 2 0.2532 0.244454 0.199493
1530 1 0.363033 0.248269 0.192145
1531 2 0.383429 0.240327 0.185989
1296 1 0.630241 0.00278062 0.1506
1298 2 0.604282 0.0125352 0.153832
1318 2 0.512954 0.129255 0.147689
1320 1 0.631298 0.13514 0.154461
1321 2 0.623951 0.114167 0.160502
1322 2 0.619751 0.125693 0.146576
1323 1 0.744217 0.118811 0.156506
1325 2 0.737784 0.145836 0.153315
1345 2 0.629379 0.23526 0.148091
1489 2 0.638769 0.00513252 0.19823
1493 2 0.744076 0.0178521 0.197
1509 1 0.506397 0.115466 0.191129
1510 2 0.512931 0.144207 0.190127
1512 1 0.622042 0.128341 0.188846
1513 2 0.612938 0.140413 0.196695
1514 2 0.640021 0.106246 0.191382
1516 2 0.73442 0.106914 0.193559
1533 1 0.501068 0.247804 0.195955
1535 2 0.522254 0.246414 0.189586
1537 2 0.623358 0.241517 0.185347
1538 2 0.626502 0.246449 0.199663
1539 1 0.745088 0.239167 0.192996
1300 2 0.757323 0.0229709 0.153153
1303 2 0.887524 0.0140818 0.158525
1305 1 0.993728 0.118453 0.156313
1307 2 0.996067 0.147977 0.155862
1324 2 0.767999 0.110353 0.151718
1326 1 0.864979 0.128148 0.151996
1327 2 0.867047 0.111078 0.15943
1328 2 0.892974 0.135774 0.150113
1330 2 0.996121 0.243548 0.160928
1331 2 0.997801 0.246014 0.146528
1348 2 0.765104 0.231988 0.152057
1350 1 0.886848 0.249857 0.153087
1351 2 0.873841 0.249109 0.161283
1473 1 0.999269 0.00577199 0.195573
1491 1 0.752719 0.00564523 0.189122
1496 2 0.87601 0.0241108 0.192924
1497 1 0.993071 0.115102 0.192522
1499 2 0.984314 0.143432 0.192538
1515 1 0.755149 0.127035 0.195619
1517 2 0.76043 0.141051 0.187745
1518 1 0.871996 0.114367 0.190788
1519 2 0.895945 0.120691 0.195804
1520 2 0.857059 0.139941 0.190332
1521 1 0.996591 0.238418 0.192047
1540 2 0.757423 0.248642 0.185228
1542 1 0.869534 0.240019 0.193576
1329 1 0.00607805 0.260438 0.154082
1334 2 0.110146 0.269124 0.153843
1353 1 0.00689883 0.374876 0.150787
1355 2 0.0155519 0.371363 0.159446
1356 1 0.123349 0.375828 0.150166
1357 2 0.122167 0.351453 0.155349
1358 2 0.129483 0.39772 0.156024
1359 1 0.243267 0.365077 0.153342
1361 2 0.236015 0.393159 0.151442
1379 2 0.0204777 0.48738 0.152989
1380 1 0.123844 0.4886 0.155045
1382 2 0.138714 0.498237 0.14773
1526 2 0.113114 0.271085 0.192532
1545 1 0.0106603 0.379466 0.193413
1547 2 0.00539121 0.361037 0.186451
1548 1 0.11946 0.379628 0.189319
1549 2 0.142093 0.360477 0.1895
1550 2 0.113447 0.384895 0.198105
1551 1 0.23841 0.373814 0.193317
1552 2 0.249062 0.381411 0.185129
1570 2 0.0126376 0.481254 0.194976
1572 1 0.132079 0.494309 0.194769
1573 2 0.107688 0.483913 0.190683
1337 2 0.267508 0.260409 0.149817
1338 1 0.370301 0.260648 0.154867
1340 2 0.398925 0.252977 0.15454
1342 2 0.498134 0.257052 0.146742
1360 2 0.270717 0.366764 0.156754
1362 1 0.378916 0.365638 0.151817
1363 2 0.376001 0.393891 0.149195
1364 2 0.370083 0.365471 0.160527
1365 1 0.492279 0.36571 0.154077
1367 2 0.485841 0.394644 0.153823
1384 2 0.256803 0.483381 0.158844
1387 2 0.366478 0.496445 0.146958
1388 2 0.39307 0.499558 0.158804
1389 1 0.488212 0.497756 0.15336
1528 2 0.252176 0.265309 0.186574
1532 2 0.378538 0.261404 0.19879
1534 2 0.476678 0.255782 0.191382
1553 2 0.262528 0.369775 0.198478
1554 1 0.36907 0.365401 0.193655
1555 2 0.397612 0.367069 0.191234
1556 2 0.358318 0.392529 0.192034
1557 1 0.489652 0.370037 0.191125
1575 1 0.252338 0.488127 0.192377
1578 1 0.381302 0.489949 0.193045
1580 2 0.353292 0.496055 0.195378
1341 1 0.504873 0.25951 0.155595
1344 1 0.632472 0.259365 0.153318
1346 2 0.613148 0.255375 0.160129
1349 2 0.733216 0.266369 0.151982
1366 2 0.521879 0.364646 0.153638
1368 1 0.617931 0.365229 0.15416
1369 2 0.647534 0.366146 0.153712
1370 2 0.609535 0.393624 0.153667
1373 2 0.726333 0.374958 0.155423
1391 2 0.510543 0.491333 0.147692
1392 1 0.626769 0.489001 0.152391
1394 2 0.609709 0.496284 0.159509
1395 1 0.741673 0.491522 0.15314
1536 1 0.625139 0.262034 0.191912
1541 2 0.747489 0.26219 0.198699
1558 2 0.507883 0.359956 0.197618
1559 2 0.502465 0.395006 0.188179
1560 1 0.614216 0.369588 0.192599
1561 2 0.640714 0.356764 0.191501
1562 2 0.62007 0.398649 0.192822
1563 1 0.742472 0.370034 0.189824
1565 2 0.736452 0.37804 0.198412
1581 1 0.503364 0.491403 0.189899
1585 2 0.637991 0.479982 0.193571
1347 1 0.75168 0.251643 0.157499
1352 2 0.864311 0.251034 0.147168
1354 2 0.977549 0.378761 0.151305
1371 1 0.754995 0.381601 0.156563
1372 2 0.768672 0.368441 0.149553
1374 1 0.878156 0.37322 0.150293
1375 2 0.860195 0.394151 0.153644
1376 2 0.886649 0.35763 0.157601
1377 1 0.99123 0.492258 0.152891
1396 2 0.771122 0.489217 0.15234
1398 1 0.881115 0.489851 0.153087
1399 2 0.869181 0.498015 0.161053
1523 2 0.984664 0.261898 0.187853
1543 2 0.886044 0.259314 0.198287
1544 2 0.869422 0.250667 0.18506
1546 2 0.983948 0.384498 0.19706
1564 2 0.771076 0.376926 0.188687
1566 1 0.875218 0.380364 0.18897
1567 2 0.897939 0.375976 0.194676
1568 2 0.851843 0.36866 0.193278
1569 1 0.998787 0.497627 0.188675
1587 1 0.75221 0.496433 0.188815
1588 2 0.754172 0.480302 0.196447
1590 1 0.865708 0.494981 0.190489
1591 2 0.87441 0.489819 0.199065
1381 2 0.112442 0.513163 0.158764
1385 2 0.239309 0.506123 0.147432
1402 2 0.0232863 0.621573 0.152096
1404 1 0.114975 0.618567 0.153187
1405 2 0.122054 0.633487 0.160765
1406 2 0.137972 0.622946 0.147586
1409 2 0.225881 0.627135 0.153752
1426 2 0.0237065 0.745064 0.153857
1429 2 0.141574 0.744211 0.148715
1430 2 0.109863 0.743831 0.159343
1431 1 0.246633 0.748454 0.157391
1574 2 0.135233 0.521777 0.191471
1577 2 0.24155 0.504926 0.199124
1593 1 0.0104911 0.629342 0.193597
1595 2 0.0032156 0.601009 0.192102
1596 1 0.117914 0.629069 0.195055
1597 2 0.116064 0.635322 0.186154
1598 2 0.141022 0.610609 0.195714
1599 1 0.242798 0.634722 0.19221
1601 2 0.24557 0.613507 0.185893
1618 2 0.0215879 0.742543 0.189832
1620 1 0.115344 0.743792 0.193487
1621 2 0.141436 0.733004 0.190698
1623 1 0.240196 0.7444 0.190966
1383 1 0.253889 0.510497 0.155262
1386 1 0.365452 0.503996 0.155776
1407 1 0.253542 0.629172 0.150525
1408 2 0.270576 0.618693 0.157262
1410 1 0.381349 0.618486 0.15139
1411 2 0.391564 0.638652 0.157295
1412 2 0.352087 0.617862 0.152854
1413 1 0.493781 0.614703 0.154257
1415 2 0.483149 0.642377 0.154054
1432 2 0.272666 0.741524 0.153578
1434 1 0.375274 0.740262 0.151636
1435 2 0.357972 0.744912 0.158907
1576 2 0.256111 0.506946 0.185422
1579 2 0.390406 0.513996 0.1885
1583 2 0.4768 0.504355 0.190647
1600 2 0.261631 0.626771 0.19882
1602 1 0.36763 0.632917 0.193979
1603 2 0.376975 0.606753 0.197168
1604 2 0.380394 0.63533 0.185777
1607 2 0.484968 0.62449 0.198147
1624 2 0.268246 0.734785 0.190866
1626 1 0.364908 0.748489 0.19431
1627 2 0.390473 0.733664 0.195061
1629 1 0.491955 0.741105 0.191807
1390 2 0.501244 0.510911 0.160487
1393 2 0.638521 0.514715 0.149638
1397 2 0.737205 0.51926 0.156058
1414 2 0.523069 0.61792 0.153228
1416 1 0.632673 0.63414 0.154466
1417 2 0.629549 0.609244 0.159328
1418 2 0.612778 0.631616 0.147745
1419 1 0.740281 0.627497 0.151764
1421 2 0.746811 0.602016 0.155977
1437 1 0.507836 0.745764 0.151325
1441 2 0.644513 0.737352 0.155925
1443 1 0.748597 0.741944 0.151101
1582 2 0.519837 0.504241 0.196377
1584 1 0.633094 0.50899 0.192426
1586 2 0.603915 0.511028 0.190925
1589 2 0.743618 0.523264 0.191662
1605 1 0.510948 0.623005 0.193772
1606 2 0.504084 0.627505 0.185004
1608 1 0.618692 0.614677 0.19242
1609 2 0.648164 0.617953 0.192417
1610 2 0.608144 0.64237 0.192086
1613 2 0.731616 0.640326 0.193439
1630 2 0.521149 0.740346 0.190223
1632 1 0.619523 0.739227 0.192107
1635 1 0.74308 0.743522 0.194623
1378 2 0.988292 0.520362 0.155658
1400 2 0.874704 0.512133 0.147399
1401 1 0.994988 0.614032 0.153528
1403 2 0.981725 0.639395 0.155914
1420 2 0.762909 0.645487 0.153798
1422 1 0.874174 0.616281 0.156416
1423 2 0.877752 0.613106 0.147412
1424 2 0.873074 0.645614 0.15771
1425 1 0.995424 0.742926 0.15652
1444 2 0.772791 0.746788 0.156161
1446 1 0.874699 0.746026 0.157362
1447 2 0.85807 0.73696 0.150342
1571 2 0.988575 0.521119 0.193272
1592 2 0.884883 0.5152 0.187369
1594 2 0.986293 0.644649 0.191224
1611 1 0.752616 0.626179 0.18869
1612 2 0.765768 0.608495 0.194794
1614 1 0.879334 0.614247 0.191238
1615 2 0.853845 0.627036 0.188737
1616 2 0.891821 0.633716 0.196948
1617 1 0.994073 0.739789 0.193127
1636 2 0.75973 0.73359 0.187719
1638 1 0.867675 0.740895 0.193277
1640 2 0.894968 0.74657 0.196388
1283 2 0.021063 0.989302 0.155482
1284 1 0.123113 0.988103 0.154206
1287 1 0.249198 0.989037 0.152288
1428 1 0.123563 0.761959 0.153481
1433 2 0.230701 0.760022 0.150569
1450 2 0.00250965 0.853571 0.150463
1452 1 0.118872 0.875062 0.150635
1453 2 0.129945 0.851631 0.155069
1454 2 0.126183 0.898307 0.155834
1455 1 0.243914 0.875863 0.157054
1456 2 0.245986 0.896134 0.150425
1478 2 0.103918 0.98809 0.192376
1479 1 0.247834 0.997259 0.195873
1622 2 0.11822 0.773204 0.192738
1625 2 0.241558 0.770815 0.195091
1641 1 0.00754959 0.882075 0.190375
1642 2 0.00668672 0.877998 0.199409
1644 1 0.131267 0.883711 0.19403
1645 2 0.12183 0.883337 0.185381
1646 2 0.121903 0.857952 0.197512
1648 2 0.242641 0.86932 0.185428
1649 2 0.245944 0.876922 0.199629
1289 2 0.250347 0.995651 0.161175
1290 1 0.384649 0.994904 0.155457
1291 2 0.365792 0.982535 0.149532
1436 2 0.391754 0.764826 0.150995
1438 2 0.478948 0.751341 0.150188
1457 2 0.260101 0.853003 0.154059
1458 1 0.3799 0.864204 0.154594
1459 2 0.385192 0.89002 0.158778
1460 2 0.359908 0.870777 0.148166
1461 1 0.499413 0.865942 0.15631
1463 2 0.476901 0.879641 0.152126
1481 2 0.258271 0.979388 0.189339
1484 2 0.379393 0.976461 0.1912
1628 2 0.369619 0.767847 0.187552
1631 2 0.486896 0.768549 0.194893
1647 1 0.261415 0.878758 0.191866
1650 1 0.371312 0.863562 0.191866
1651 2 0.393385 0.87743 0.187517
1652 2 0.360303 0.884008 0.19754
1655 2 0.482178 0.880232 0.187527
1293 1 0.509863 0.997337 0.155843
1295 2 0.50644 0.995527 0.146797
1297 2 0.640476 0.984684 0.157106
1301 2 0.738856 0.982429 0.157658
1439 2 0.513216 0.752895 0.160026
1440 1 0.622345 0.756837 0.156808
1442 2 0.608141 0.755811 0.148805
1445 2 0.728612 0.761268 0.154276
1462 2 0.523686 0.879417 0.153103
1464 1 0.625147 0.862898 0.153842
1465 2 0.64384 0.881296 0.149585
1466 2 0.606012 0.880806 0.158111
1469 2 0.738648 0.85399 0.15508
1485 1 0.500212 0.99249 0.195227
1486 2 0.52112 0.996182 0.188858
1488 1 0.632651 0.995032 0.18986
1490 2 0.60358 0.999836 0.188833
1633 2 0.634474 0.753319 0.185527
1634 2 0.621003 0.757453 0.199289
1637 2 0.74719 0.772889 0.194581
1653 1 0.507423 0.867757 0.190388
1654 2 0.510399 0.877011 0.199008
1656 1 0.626379 0.886666 0.191411