LAMMPS (29 Sep 2021 - Update 2)
OMP_NUM_THREADS environment is not set. Defaulting to 1 thread. (src/comm.cpp:98)
  using 1 OpenMP thread(s) per MPI task
# define a bunch of variables
variable sigma equal 3.405 # Angstrom
variable epsilon equal 0.238 # Kcal/mol
variable U0 equal 10*${epsilon} # Kcal/mol
variable U0 equal 10*0.238 
variable dlt equal 0.5 # Angstrom
variable x0 equal 5.0  # Angstrom
variable k equal 1.5 # Kcal/mol/Angstrom^2

# initialise the simulation
units real
atom_style atomic
pair_style lj/cut 3.822 # 2^(1/6) * 3.405 WCA potential
pair_modify shift yes
boundary p p p

# define the system
region myreg block -25 25 -20 20 -20 20
create_box 2 myreg
Created orthogonal box = (-25.000000 -20.000000 -20.000000) to (25.000000 20.000000 20.000000)
  2 by 1 by 2 MPI processor grid
create_atoms 2 single 0 0 0
Created 1 atoms
  using lattice units in orthogonal box = (-25.000000 -20.000000 -20.000000) to (25.000000 20.000000 20.000000)
  create_atoms CPU = 0.000 seconds
create_atoms 1 random 5 341341 myreg
Created 5 atoms
  using lattice units in orthogonal box = (-25.000000 -20.000000 -20.000000) to (25.000000 20.000000 20.000000)
  create_atoms CPU = 0.000 seconds

# settings
mass * 39.948
pair_coeff * * ${epsilon} ${sigma}
pair_coeff * * 0.238 ${sigma}
pair_coeff * * 0.238 3.405
neigh_modify every 1 delay 4 check yes
group topull type 2
1 atoms in group topull

# run
variable U atom ${U0}*atan((x+${x0})/${dlt})-${U0}*atan((x-${x0})/${dlt})
variable U atom 2.38*atan((x+${x0})/${dlt})-${U0}*atan((x-${x0})/${dlt})
variable U atom 2.38*atan((x+5)/${dlt})-${U0}*atan((x-${x0})/${dlt})
variable U atom 2.38*atan((x+5)/0.5)-${U0}*atan((x-${x0})/${dlt})
variable U atom 2.38*atan((x+5)/0.5)-2.38*atan((x-${x0})/${dlt})
variable U atom 2.38*atan((x+5)/0.5)-2.38*atan((x-5)/${dlt})
variable U atom 2.38*atan((x+5)/0.5)-2.38*atan((x-5)/0.5)
variable F atom ${U0}/((x-${x0})^2/${dlt}^2+1)/${dlt}-${U0}/((x+${x0})^2/${dlt}^2+1)/${dlt}
variable F atom 2.38/((x-${x0})^2/${dlt}^2+1)/${dlt}-${U0}/((x+${x0})^2/${dlt}^2+1)/${dlt}
variable F atom 2.38/((x-5)^2/${dlt}^2+1)/${dlt}-${U0}/((x+${x0})^2/${dlt}^2+1)/${dlt}
variable F atom 2.38/((x-5)^2/0.5^2+1)/${dlt}-${U0}/((x+${x0})^2/${dlt}^2+1)/${dlt}
variable F atom 2.38/((x-5)^2/0.5^2+1)/0.5-${U0}/((x+${x0})^2/${dlt}^2+1)/${dlt}
variable F atom 2.38/((x-5)^2/0.5^2+1)/0.5-2.38/((x+${x0})^2/${dlt}^2+1)/${dlt}
variable F atom 2.38/((x-5)^2/0.5^2+1)/0.5-2.38/((x+5)^2/${dlt}^2+1)/${dlt}
variable F atom 2.38/((x-5)^2/0.5^2+1)/0.5-2.38/((x+5)^2/0.5^2+1)/${dlt}
variable F atom 2.38/((x-5)^2/0.5^2+1)/0.5-2.38/((x+5)^2/0.5^2+1)/0.5
fix pot all addforce v_F 0.0 0.0 energy v_U

fix mynve all nve
fix mylgv all langevin 119.8 119.8 100 1530917
timestep 2.0
thermo 100000
run 2000000
Neighbor list info ...
  update every 1 steps, delay 4 steps, check yes
  max neighbors/atom: 2000, page size: 100000
  master list distance cutoff = 5.822
  ghost atom cutoff = 5.822
  binsize = 2.911, bins = 18 14 14
  1 neighbor lists, perpetual/occasional/extra = 1 0 0
  (1) pair lj/cut, perpetual
      attributes: half, newton on
      pair build: half/bin/atomonly/newton
      stencil: half/bin/3d
      bin: standard
Per MPI rank memory allocation (min/avg/max) = 0.4455 | 2.695 | 3.570 Mbytes
Step Temp E_pair E_mol TotEng Press 
       0            0            0            0            0            0 
  100000    81.612811            0            0    1.2163614   0.69503313 
  200000    177.37094            0            0    2.6435454     1.510531 
  300000    95.255969   0.12916622            0     1.548866    1.8551718 
  400000      148.117            0            0    2.2075432    1.2613978 
  500000    122.97697            0            0    1.8328549    1.0472996 
  600000    147.53186            0            0    2.1988222    1.2564146 
  700000    204.62129            0            0     3.049686    1.7426012 
  800000    93.831464            0            0    1.3984689   0.79908994 
  900000    122.01563            0            0    1.8185271    1.0391127 
 1000000     153.3538            0            0    2.2855928    1.3059956 
 1100000    154.79476            0            0    2.3070689    1.3182672 
 1200000    130.29966            0            0    1.9419926    1.1096613 
 1300000    115.05692            0            0    1.7148142   0.97985074 
 1400000    243.42136            0            0    3.6279642    2.0730313 
 1500000    176.79966            0            0     2.635031    1.5056658 
 1600000    109.10601            0            0    1.6261214    0.9291714 
 1700000    121.58414            0            0    1.8120961     1.035438 
 1800000    84.337191            0            0    1.2569657   0.71823457 
 1900000    173.33435            0            0    2.5833839    1.4761545 
 2000000    129.80831            0            0    1.9346696    1.1054769 
Loop time of 25.4849 on 4 procs for 2000000 steps with 6 atoms

Performance: 13560.960 ns/day, 0.002 hours/ns, 78477.780 timesteps/s
99.9% CPU use with 4 MPI tasks x 1 OpenMP threads

MPI task timing breakdown:
Section |  min time  |  avg time  |  max time  |%varavg| %total
---------------------------------------------------------------
Pair    | 0.12023    | 0.12497    | 0.13349    |   1.5 |  0.49
Neigh   | 0.029442   | 0.029793   | 0.030049   |   0.1 |  0.12
Comm    | 3.0703     | 3.1614     | 3.2644     |   4.4 | 12.41
Output  | 0.00044529 | 0.00053508 | 0.00079622 |   0.0 |  0.00
Modify  | 13.403     | 14.744     | 16.084     |  27.7 | 57.85
Other   |            | 7.424      |            |       | 29.13

Nlocal:        1.50000 ave           4 max           0 min
Histogram: 2 0 0 0 0 1 0 0 0 1
Nghost:        2.50000 ave           4 max           2 min
Histogram: 3 0 0 0 0 0 0 0 0 1
Neighs:         0.00000 ave           0 max           0 min
Histogram: 4 0 0 0 0 0 0 0 0 0

Total # of neighbors = 0
Ave neighs/atom = 0.0000000
Neighbor list builds = 8954
Dangerous builds = 0
reset_timestep 0

dump mydmp all atom 1000000 dump.lammpstrj

variable a loop 50
label loop
variable xdes equal ${a}-25
variable xdes equal 1-25
variable xave equal xcm(topull,x)
fix mytth topull spring tether ${k} ${xdes} 0 0 0
fix mytth topull spring tether 1.5 ${xdes} 0 0 0
fix mytth topull spring tether 1.5 -24 0 0 0
run 200000
Per MPI rank memory allocation (min/avg/max) = 3.571 | 4.071 | 4.571 Mbytes
Step Temp E_pair E_mol TotEng Press 
       0    129.80831            0            0    1.9346696    1.1054769 
  100000    195.82602            0            0    2.9186008    1.6676986 
  200000    169.56787            0            0     2.527248    1.4440783 
Loop time of 2.45218 on 4 procs for 200000 steps with 6 atoms

Performance: 14093.596 ns/day, 0.002 hours/ns, 81560.160 timesteps/s
99.9% CPU use with 4 MPI tasks x 1 OpenMP threads

MPI task timing breakdown:
Section |  min time  |  avg time  |  max time  |%varavg| %total
---------------------------------------------------------------
Pair    | 0.010897   | 0.01165    | 0.01248    |   0.6 |  0.48
Neigh   | 0.0024448  | 0.0025722  | 0.0026477  |   0.2 |  0.10
Comm    | 0.2978     | 0.32157    | 0.33594    |   2.8 | 13.11
Output  | 3.0336e-05 | 3.5633e-05 | 5.121e-05  |   0.0 |  0.00
Modify  | 1.8976     | 1.9237     | 1.961      |   1.9 | 78.45
Other   |            | 0.1926     |            |       |  7.86

Nlocal:        1.50000 ave           2 max           1 min
Histogram: 2 0 0 0 0 0 0 0 0 2
Nghost:        2.00000 ave           3 max           1 min
Histogram: 1 0 0 0 0 2 0 0 0 1
Neighs:         0.00000 ave           0 max           0 min
Histogram: 4 0 0 0 0 0 0 0 0 0

Total # of neighbors = 0
Ave neighs/atom = 0.0000000
Neighbor list builds = 904
Dangerous builds = 0
fix myat1 all ave/time 10 10 100 v_xave v_xdes file position.${a}.dat
fix myat1 all ave/time 10 10 100 v_xave v_xdes file position.1.dat
run 200000
Per MPI rank memory allocation (min/avg/max) = 3.571 | 4.071 | 4.571 Mbytes
Step Temp E_pair E_mol TotEng Press 
  200000    169.56787            0            0     2.527248    1.4440783 
  300000    90.437878            0            0    1.3478907   0.77018939 
  400000     67.93368            0            0     1.012487   0.57853856 
Loop time of 4.10661 on 4 procs for 200000 steps with 6 atoms

Performance: 8415.701 ns/day, 0.003 hours/ns, 48701.974 timesteps/s
99.9% CPU use with 4 MPI tasks x 1 OpenMP threads

MPI task timing breakdown:
Section |  min time  |  avg time  |  max time  |%varavg| %total
---------------------------------------------------------------
Pair    | 0.014391   | 0.016404   | 0.0184     |   1.2 |  0.40
Neigh   | 0.0032947  | 0.0034196  | 0.0036475  |   0.2 |  0.08
Comm    | 0.41169    | 0.43673    | 0.48441    |   4.3 | 10.63
Output  | 5.5223e-05 | 5.7874e-05 | 6.3589e-05 |   0.0 |  0.00
Modify  | 3.2638     | 3.3126     | 3.3352     |   1.6 | 80.66
Other   |            | 0.3374     |            |       |  8.22

Nlocal:        1.50000 ave           2 max           1 min
Histogram: 2 0 0 0 0 0 0 0 0 2
Nghost:        2.00000 ave           3 max           1 min
Histogram: 1 0 0 0 0 2 0 0 0 1
Neighs:         0.00000 ave           0 max           0 min
Histogram: 4 0 0 0 0 0 0 0 0 0

Total # of neighbors = 0
Ave neighs/atom = 0.0000000
Neighbor list builds = 869
Dangerous builds = 0
unfix myat1
next a
jump SELF loop
variable xdes equal ${a}-25
variable xdes equal 2-25
variable xave equal xcm(topull,x)
fix mytth topull spring tether ${k} ${xdes} 0 0 0
fix mytth topull spring tether 1.5 ${xdes} 0 0 0
fix mytth topull spring tether 1.5 -23 0 0 0
run 200000
Per MPI rank memory allocation (min/avg/max) = 3.571 | 4.071 | 4.571 Mbytes
Step Temp E_pair E_mol TotEng Press 
  400000     67.93368            0            0     1.012487   0.57853856 
  500000    185.28745            0            0    2.7615334    1.5779497 
  600000    180.31147            0            0    2.6873712    1.5355732 
Loop time of 3.50037 on 4 procs for 200000 steps with 6 atoms

Performance: 9873.242 ns/day, 0.002 hours/ns, 57136.815 timesteps/s
99.9% CPU use with 4 MPI tasks x 1 OpenMP threads

MPI task timing breakdown:
Section |  min time  |  avg time  |  max time  |%varavg| %total
---------------------------------------------------------------
Pair    | 0.012462   | 0.014709   | 0.018889   |   2.1 |  0.42
Neigh   | 0.0027969  | 0.003016   | 0.0033313  |   0.4 |  0.09
Comm    | 0.36118    | 0.37681    | 0.4077     |   3.0 | 10.76
Output  | 3.0834e-05 | 3.7125e-05 | 5.4902e-05 |   0.0 |  0.00
Modify  | 2.8056     | 2.8386     | 2.8638     |   1.3 | 81.10
Other   |            | 0.2672     |            |       |  7.63

Nlocal:        1.50000 ave           2 max           1 min
Histogram: 2 0 0 0 0 0 0 0 0 2
Nghost:        1.50000 ave           3 max           0 min
Histogram: 1 0 0 1 0 0 1 0 0 1
Neighs:         0.00000 ave           0 max           0 min
Histogram: 4 0 0 0 0 0 0 0 0 0

Total # of neighbors = 0
Ave neighs/atom = 0.0000000
Neighbor list builds = 868
Dangerous builds = 0
fix myat1 all ave/time 10 10 100 v_xave v_xdes file position.${a}.dat
fix myat1 all ave/time 10 10 100 v_xave v_xdes file position.2.dat
run 200000
Per MPI rank memory allocation (min/avg/max) = 3.571 | 4.071 | 4.571 Mbytes
Step Temp E_pair E_mol TotEng Press 
  600000    180.31147            0            0    2.6873712    1.5355732 
  700000    221.79941            0            0    3.3057096    1.8888939 
  800000    207.15596            0            0    3.0874629     1.764187 
Loop time of 4.30082 on 4 procs for 200000 steps with 6 atoms

Performance: 8035.683 ns/day, 0.003 hours/ns, 46502.793 timesteps/s
99.8% CPU use with 4 MPI tasks x 1 OpenMP threads

MPI task timing breakdown:
Section |  min time  |  avg time  |  max time  |%varavg| %total
---------------------------------------------------------------
Pair    | 0.014076   | 0.01736    | 0.020595   |   1.9 |  0.40
Neigh   | 0.0036134  | 0.0038766  | 0.0042354  |   0.4 |  0.09
Comm    | 0.44661    | 0.46836    | 0.49663    |   3.2 | 10.89
Output  | 6.7521e-05 | 6.7843e-05 | 6.8332e-05 |   0.0 |  0.00
Modify  | 3.4216     | 3.4566     | 3.4818     |   1.2 | 80.37
Other   |            | 0.3545     |            |       |  8.24

Nlocal:        1.50000 ave           3 max           1 min
Histogram: 3 0 0 0 0 0 0 0 0 1
Nghost:        2.50000 ave           3 max           2 min
Histogram: 2 0 0 0 0 0 0 0 0 2
Neighs:         0.00000 ave           0 max           0 min
Histogram: 4 0 0 0 0 0 0 0 0 0

Total # of neighbors = 0
Ave neighs/atom = 0.0000000
Neighbor list builds = 864
Dangerous builds = 0
unfix myat1
next a
jump SELF loop
variable xdes equal ${a}-25
variable xdes equal 3-25
variable xave equal xcm(topull,x)
fix mytth topull spring tether ${k} ${xdes} 0 0 0
fix mytth topull spring tether 1.5 ${xdes} 0 0 0
fix mytth topull spring tether 1.5 -22 0 0 0
run 200000
Per MPI rank memory allocation (min/avg/max) = 3.571 | 4.071 | 4.571 Mbytes
Step Temp E_pair E_mol TotEng Press 
  800000    207.15596            0            0    3.0874629     1.764187 
  900000    188.23879            0            0    2.8055204    1.6030841 
 1000000    108.92763            0            0    1.6234629    0.9276523 
Loop time of 3.42427 on 4 procs for 200000 steps with 6 atoms

Performance: 10092.664 ns/day, 0.002 hours/ns, 58406.620 timesteps/s
99.9% CPU use with 4 MPI tasks x 1 OpenMP threads

MPI task timing breakdown:
Section |  min time  |  avg time  |  max time  |%varavg| %total
---------------------------------------------------------------
Pair    | 0.014267   | 0.015593   | 0.017619   |   1.1 |  0.46
Neigh   | 0.0035405  | 0.0036983  | 0.0038156  |   0.2 |  0.11
Comm    | 0.42044    | 0.44182    | 0.48029    |   3.5 | 12.90
Output  | 0.00010131 | 0.00010702 | 0.00012328 |   0.0 |  0.00
Modify  | 2.6515     | 2.7016     | 2.7379     |   2.1 | 78.90
Other   |            | 0.2615     |            |       |  7.64

Nlocal:        1.50000 ave           4 max           0 min
Histogram: 2 0 0 0 0 1 0 0 0 1
Nghost:        2.00000 ave           3 max           1 min
Histogram: 1 0 0 0 0 2 0 0 0 1
Neighs:         0.00000 ave           0 max           0 min
Histogram: 4 0 0 0 0 0 0 0 0 0

Total # of neighbors = 0
Ave neighs/atom = 0.0000000
Neighbor list builds = 872
Dangerous builds = 0
fix myat1 all ave/time 10 10 100 v_xave v_xdes file position.${a}.dat
fix myat1 all ave/time 10 10 100 v_xave v_xdes file position.3.dat
run 200000
Per MPI rank memory allocation (min/avg/max) = 3.571 | 4.321 | 4.571 Mbytes
Step Temp E_pair E_mol TotEng Press 
 1000000    108.92763            0            0    1.6234629    0.9276523 
 1100000    163.40533            0            0    2.4354012    1.3915967 
 1200000    108.00888            0            0    1.6097698   0.91982806 
Loop time of 4.56847 on 4 procs for 200000 steps with 6 atoms

Performance: 7564.902 ns/day, 0.003 hours/ns, 43778.368 timesteps/s
99.7% CPU use with 4 MPI tasks x 1 OpenMP threads

MPI task timing breakdown:
Section |  min time  |  avg time  |  max time  |%varavg| %total
---------------------------------------------------------------
Pair    | 0.014817   | 0.018084   | 0.020879   |   1.7 |  0.40
Neigh   | 0.0040825  | 0.0043284  | 0.0045112  |   0.2 |  0.09
Comm    | 0.44244    | 0.50685    | 0.54592    |   5.6 | 11.09
Output  | 6.9527e-05 | 7.9759e-05 | 8.4382e-05 |   0.0 |  0.00
Modify  | 3.6297     | 3.6648     | 3.733      |   2.2 | 80.22
Other   |            | 0.3743     |            |       |  8.19

Nlocal:        1.50000 ave           2 max           1 min
Histogram: 2 0 0 0 0 0 0 0 0 2
Nghost:        4.75000 ave           5 max           4 min
Histogram: 1 0 0 0 0 0 0 0 0 3
Neighs:       0.250000 ave           1 max           0 min
Histogram: 3 0 0 0 0 0 0 0 0 1

Total # of neighbors = 1
Ave neighs/atom = 0.16666667
Neighbor list builds = 866
Dangerous builds = 0
unfix myat1
next a
jump SELF loop
variable xdes equal ${a}-25
variable xdes equal 4-25
variable xave equal xcm(topull,x)
fix mytth topull spring tether ${k} ${xdes} 0 0 0
fix mytth topull spring tether 1.5 ${xdes} 0 0 0
fix mytth topull spring tether 1.5 -21 0 0 0
run 200000
Per MPI rank memory allocation (min/avg/max) = 3.571 | 4.321 | 4.571 Mbytes
Step Temp E_pair E_mol TotEng Press 
 1200000    108.00888            0            0    1.6097698   0.91982806 
 1300000    81.236896            0            0    1.2107588   0.69183175 
 1400000    70.998236            0            0    1.0581613   0.60463701 
Loop time of 3.09452 on 4 procs for 200000 steps with 6 atoms

Performance: 11168.133 ns/day, 0.002 hours/ns, 64630.397 timesteps/s
99.9% CPU use with 4 MPI tasks x 1 OpenMP threads

MPI task timing breakdown:
Section |  min time  |  avg time  |  max time  |%varavg| %total
---------------------------------------------------------------
Pair    | 0.014211   | 0.014956   | 0.016338   |   0.7 |  0.48
Neigh   | 0.0037854  | 0.0038786  | 0.0040054  |   0.2 |  0.13
Comm    | 0.42371    | 0.45066    | 0.47761    |   3.1 | 14.56
Output  | 3.2069e-05 | 3.8125e-05 | 5.6057e-05 |   0.0 |  0.00
Modify  | 2.3418     | 2.3775     | 2.4123     |   2.0 | 76.83
Other   |            | 0.2475     |            |       |  8.00

Nlocal:        1.50000 ave           2 max           1 min
Histogram: 2 0 0 0 0 0 0 0 0 2
Nghost:        3.00000 ave           4 max           2 min
Histogram: 1 0 0 0 0 2 0 0 0 1
Neighs:         0.00000 ave           0 max           0 min
Histogram: 4 0 0 0 0 0 0 0 0 0

Total # of neighbors = 0
Ave neighs/atom = 0.0000000
Neighbor list builds = 875
Dangerous builds = 0
fix myat1 all ave/time 10 10 100 v_xave v_xdes file position.${a}.dat
fix myat1 all ave/time 10 10 100 v_xave v_xdes file position.4.dat
run 200000
Per MPI rank memory allocation (min/avg/max) = 3.571 | 4.321 | 4.571 Mbytes
Step Temp E_pair E_mol TotEng Press 
 1400000    70.998236            0            0    1.0581613   0.60463701 
 1500000    104.45148            0            0    1.5567501    0.8895324 
 1600000    244.24397            0            0    3.6402244    2.0800368 
Loop time of 3.50248 on 4 procs for 200000 steps with 6 atoms

Performance: 9867.288 ns/day, 0.002 hours/ns, 57102.362 timesteps/s
99.9% CPU use with 4 MPI tasks x 1 OpenMP threads

MPI task timing breakdown:
Section |  min time  |  avg time  |  max time  |%varavg| %total
---------------------------------------------------------------
Pair    | 0.013843   | 0.015261   | 0.017956   |   1.3 |  0.44
Neigh   | 0.0034505  | 0.0036366  | 0.003972   |   0.3 |  0.10
Comm    | 0.38845    | 0.40108    | 0.4258     |   2.3 | 11.45
Output  | 4.8788e-05 | 5.1509e-05 | 5.6723e-05 |   0.0 |  0.00
Modify  | 2.7497     | 2.7846     | 2.7996     |   1.2 | 79.50
Other   |            | 0.2979     |            |       |  8.50

Nlocal:        1.50000 ave           3 max           0 min
Histogram: 1 0 0 1 0 0 1 0 0 1
Nghost:        1.75000 ave           3 max           1 min
Histogram: 2 0 0 0 0 1 0 0 0 1
Neighs:         0.00000 ave           0 max           0 min
Histogram: 4 0 0 0 0 0 0 0 0 0

Total # of neighbors = 0
Ave neighs/atom = 0.0000000
Neighbor list builds = 892
Dangerous builds = 0
unfix myat1
next a
jump SELF loop
variable xdes equal ${a}-25
variable xdes equal 5-25
variable xave equal xcm(topull,x)
fix mytth topull spring tether ${k} ${xdes} 0 0 0
fix mytth topull spring tether 1.5 ${xdes} 0 0 0
fix mytth topull spring tether 1.5 -20 0 0 0
run 200000
Per MPI rank memory allocation (min/avg/max) = 3.571 | 4.321 | 4.571 Mbytes
Step Temp E_pair E_mol TotEng Press 
 1600000    244.24397            0            0    3.6402244    2.0800368 
 1700000     105.3626            0            0    1.5703295   0.89729173 
 1800000    142.78062            0            0    2.1280096     1.215952 
Loop time of 2.42466 on 4 procs for 200000 steps with 6 atoms

Performance: 14253.521 ns/day, 0.002 hours/ns, 82485.653 timesteps/s
100.0% CPU use with 4 MPI tasks x 1 OpenMP threads

MPI task timing breakdown:
Section |  min time  |  avg time  |  max time  |%varavg| %total
---------------------------------------------------------------
Pair    | 0.011208   | 0.012748   | 0.013728   |   0.8 |  0.53
Neigh   | 0.0026031  | 0.0027418  | 0.0028652  |   0.2 |  0.11
Comm    | 0.31775    | 0.33773    | 0.36521    |   3.2 | 13.93
Output  | 2.9925e-05 | 3.5507e-05 | 5.1889e-05 |   0.0 |  0.00
Modify  | 1.831      | 1.8753     | 1.9049     |   2.0 | 77.34
Other   |            | 0.1961     |            |       |  8.09

Nlocal:        1.50000 ave           4 max           0 min
Histogram: 2 0 0 0 0 1 0 0 0 1
Nghost:        2.25000 ave           4 max           1 min
Histogram: 1 0 0 2 0 0 0 0 0 1
Neighs:         0.00000 ave           0 max           0 min
Histogram: 4 0 0 0 0 0 0 0 0 0

Total # of neighbors = 0
Ave neighs/atom = 0.0000000
Neighbor list builds = 875
Dangerous builds = 0
fix myat1 all ave/time 10 10 100 v_xave v_xdes file position.${a}.dat
fix myat1 all ave/time 10 10 100 v_xave v_xdes file position.5.dat
run 200000
Per MPI rank memory allocation (min/avg/max) = 3.571 | 4.321 | 4.571 Mbytes
Step Temp E_pair E_mol TotEng Press 
 1800000    142.78062            0            0    2.1280096     1.215952 
 1900000    95.046382            0            0    1.4165761   0.80943646 
 2000000    186.16418            0            0    2.7746003    1.5854162 
Loop time of 3.82034 on 4 procs for 200000 steps with 6 atoms

Performance: 9046.325 ns/day, 0.003 hours/ns, 52351.416 timesteps/s
99.9% CPU use with 4 MPI tasks x 1 OpenMP threads

MPI task timing breakdown:
Section |  min time  |  avg time  |  max time  |%varavg| %total
---------------------------------------------------------------
Pair    | 0.014652   | 0.016009   | 0.017742   |   0.9 |  0.42
Neigh   | 0.0035131  | 0.0037221  | 0.0040199  |   0.3 |  0.10
Comm    | 0.41042    | 0.45055    | 0.4892     |   4.2 | 11.79
Output  | 0.00011299 | 0.0001188  | 0.00013107 |   0.0 |  0.00
Modify  | 3.0057     | 3.0351     | 3.0774     |   1.5 | 79.45
Other   |            | 0.3149     |            |       |  8.24

Nlocal:        1.50000 ave           3 max           0 min
Histogram: 1 0 0 1 0 0 1 0 0 1
Nghost:        3.00000 ave           4 max           2 min
Histogram: 1 0 0 0 0 2 0 0 0 1
Neighs:       0.500000 ave           1 max           0 min
Histogram: 2 0 0 0 0 0 0 0 0 2

Total # of neighbors = 2
Ave neighs/atom = 0.33333333
Neighbor list builds = 878
Dangerous builds = 0
unfix myat1
next a
jump SELF loop
variable xdes equal ${a}-25
variable xdes equal 6-25
variable xave equal xcm(topull,x)
fix mytth topull spring tether ${k} ${xdes} 0 0 0
fix mytth topull spring tether 1.5 ${xdes} 0 0 0
fix mytth topull spring tether 1.5 -19 0 0 0
run 200000
Per MPI rank memory allocation (min/avg/max) = 4.571 | 4.571 | 4.571 Mbytes
Step Temp E_pair E_mol TotEng Press 
 2000000    186.16418            0            0    2.7746003    1.5854162 
 2100000    193.01005            0            0    2.8766316    1.6437172 
 2200000    223.90152            0            0    3.3370396     1.906796 
Loop time of 2.85786 on 4 procs for 200000 steps with 6 atoms

Performance: 12092.973 ns/day, 0.002 hours/ns, 69982.482 timesteps/s
100.0% CPU use with 4 MPI tasks x 1 OpenMP threads

MPI task timing breakdown:
Section |  min time  |  avg time  |  max time  |%varavg| %total
---------------------------------------------------------------
Pair    | 0.012628   | 0.014339   | 0.015846   |   1.0 |  0.50
Neigh   | 0.0037837  | 0.0038571  | 0.0039689  |   0.1 |  0.13
Comm    | 0.27983    | 0.32366    | 0.37779    |   6.2 | 11.33
Output  | 3.3011e-05 | 3.897e-05  | 5.6433e-05 |   0.0 |  0.00
Modify  | 2.2173     | 2.2835     | 2.3409     |   3.0 | 79.90
Other   |            | 0.2325     |            |       |  8.13

Nlocal:        1.50000 ave           4 max           0 min
Histogram: 2 0 0 0 0 1 0 0 0 1
Nghost:        3.00000 ave           4 max           1 min
Histogram: 1 0 0 0 0 0 1 0 0 2
Neighs:       0.250000 ave           1 max           0 min
Histogram: 3 0 0 0 0 0 0 0 0 1

Total # of neighbors = 1
Ave neighs/atom = 0.16666667
Neighbor list builds = 881
Dangerous builds = 0
fix myat1 all ave/time 10 10 100 v_xave v_xdes file position.${a}.dat
fix myat1 all ave/time 10 10 100 v_xave v_xdes file position.6.dat
run 200000
Per MPI rank memory allocation (min/avg/max) = 4.571 | 4.571 | 4.571 Mbytes
Step Temp E_pair E_mol TotEng Press 
 2200000    223.90152            0            0    3.3370396     1.906796 
 2300000    100.30466            0            0    1.4949457   0.85421717 
 2400000    114.82209            0            0    1.7113142   0.97785086 
Loop time of 3.37362 on 4 procs for 200000 steps with 6 atoms

Performance: 10244.199 ns/day, 0.002 hours/ns, 59283.559 timesteps/s
99.9% CPU use with 4 MPI tasks x 1 OpenMP threads

MPI task timing breakdown:
Section |  min time  |  avg time  |  max time  |%varavg| %total
---------------------------------------------------------------
Pair    | 0.012128   | 0.014613   | 0.018879   |   2.1 |  0.43
Neigh   | 0.0027974  | 0.0030874  | 0.0034887  |   0.5 |  0.09
Comm    | 0.36211    | 0.38377    | 0.39813    |   2.2 | 11.38
Output  | 4.6286e-05 | 4.957e-05  | 5.4002e-05 |   0.0 |  0.00
Modify  | 2.6617     | 2.6877     | 2.7255     |   1.4 | 79.67
Other   |            | 0.2844     |            |       |  8.43

Nlocal:        1.50000 ave           3 max           0 min
Histogram: 1 0 0 1 0 0 1 0 0 1
Nghost:        5.25000 ave           7 max           3 min
Histogram: 1 0 0 0 0 1 0 1 0 1
Neighs:         0.00000 ave           0 max           0 min
Histogram: 4 0 0 0 0 0 0 0 0 0

Total # of neighbors = 0
Ave neighs/atom = 0.0000000
Neighbor list builds = 872
Dangerous builds = 0
unfix myat1
next a
jump SELF loop
variable xdes equal ${a}-25
variable xdes equal 7-25
variable xave equal xcm(topull,x)
fix mytth topull spring tether ${k} ${xdes} 0 0 0
fix mytth topull spring tether 1.5 ${xdes} 0 0 0
fix mytth topull spring tether 1.5 -18 0 0 0
run 200000
Per MPI rank memory allocation (min/avg/max) = 4.571 | 4.571 | 4.571 Mbytes
Step Temp E_pair E_mol TotEng Press 
 2400000    114.82209            0            0    1.7113142   0.97785086 
 2500000    126.84948            0            0     1.890571    1.0802788 
 2600000    127.23124            0            0    1.8962609      1.08353 
Loop time of 2.37524 on 4 procs for 200000 steps with 6 atoms

Performance: 14550.104 ns/day, 0.002 hours/ns, 84201.988 timesteps/s
100.0% CPU use with 4 MPI tasks x 1 OpenMP threads

MPI task timing breakdown:
Section |  min time  |  avg time  |  max time  |%varavg| %total
---------------------------------------------------------------
Pair    | 0.011915   | 0.012778   | 0.013439   |   0.5 |  0.54
Neigh   | 0.0027179  | 0.0027995  | 0.0029345  |   0.2 |  0.12
Comm    | 0.21367    | 0.28451    | 0.32915    |   8.5 | 11.98
Output  | 3.1417e-05 | 3.6713e-05 | 5.2508e-05 |   0.0 |  0.00
Modify  | 1.8278     | 1.8718     | 1.9433     |   3.5 | 78.81
Other   |            | 0.2033     |            |       |  8.56

Nlocal:        1.50000 ave           2 max           1 min
Histogram: 2 0 0 0 0 0 0 0 0 2
Nghost:        1.25000 ave           2 max           0 min
Histogram: 1 0 0 0 0 1 0 0 0 2
Neighs:         0.00000 ave           0 max           0 min
Histogram: 4 0 0 0 0 0 0 0 0 0

Total # of neighbors = 0
Ave neighs/atom = 0.0000000
Neighbor list builds = 884
Dangerous builds = 0
fix myat1 all ave/time 10 10 100 v_xave v_xdes file position.${a}.dat
fix myat1 all ave/time 10 10 100 v_xave v_xdes file position.7.dat
run 200000
Per MPI rank memory allocation (min/avg/max) = 4.571 | 4.571 | 4.571 Mbytes
Step Temp E_pair E_mol TotEng Press 
 2600000    127.23124            0            0    1.8962609      1.08353 
 2700000    116.59541            0            0    1.7377438   0.99295284 
 2800000    147.57373            0            0    2.1994463    1.2567712 
Loop time of 3.49593 on 4 procs for 200000 steps with 6 atoms

Performance: 9885.772 ns/day, 0.002 hours/ns, 57209.331 timesteps/s
99.9% CPU use with 4 MPI tasks x 1 OpenMP threads

MPI task timing breakdown:
Section |  min time  |  avg time  |  max time  |%varavg| %total
---------------------------------------------------------------
Pair    | 0.012177   | 0.01466    | 0.02031    |   2.7 |  0.42
Neigh   | 0.0028236  | 0.0031302  | 0.0037672  |   0.7 |  0.09
Comm    | 0.31222    | 0.37449    | 0.42435    |   7.6 | 10.71
Output  | 5.2136e-05 | 5.4418e-05 | 5.8689e-05 |   0.0 |  0.00
Modify  | 2.7737     | 2.8157     | 2.8649     |   2.3 | 80.54
Other   |            | 0.2879     |            |       |  8.23

Nlocal:        1.50000 ave           3 max           0 min
Histogram: 1 0 0 1 0 0 1 0 0 1
Nghost:        2.25000 ave           4 max           1 min
Histogram: 2 0 0 0 0 0 1 0 0 1
Neighs:         0.00000 ave           0 max           0 min
Histogram: 4 0 0 0 0 0 0 0 0 0

Total # of neighbors = 0
Ave neighs/atom = 0.0000000
Neighbor list builds = 894
Dangerous builds = 0
unfix myat1
next a
jump SELF loop
variable xdes equal ${a}-25
variable xdes equal 8-25
variable xave equal xcm(topull,x)
fix mytth topull spring tether ${k} ${xdes} 0 0 0
fix mytth topull spring tether 1.5 ${xdes} 0 0 0
fix mytth topull spring tether 1.5 -17 0 0 0
run 200000
Per MPI rank memory allocation (min/avg/max) = 4.571 | 4.571 | 4.571 Mbytes
Step Temp E_pair E_mol TotEng Press 
 2800000    147.57373            0            0    2.1994463    1.2567712 
 2900000    127.44163            0            0    1.8993965    1.0853217 
 3000000    76.294015            0            0    1.1370898   0.64973707 
Loop time of 2.44369 on 4 procs for 200000 steps with 6 atoms

Performance: 14142.550 ns/day, 0.002 hours/ns, 81843.463 timesteps/s
100.0% CPU use with 4 MPI tasks x 1 OpenMP threads

MPI task timing breakdown:
Section |  min time  |  avg time  |  max time  |%varavg| %total
---------------------------------------------------------------
Pair    | 0.011795   | 0.012571   | 0.013564   |   0.6 |  0.51
Neigh   | 0.0026939  | 0.0027898  | 0.0028552  |   0.1 |  0.11
Comm    | 0.30483    | 0.35272    | 0.38397    |   5.3 | 14.43
Output  | 6.7905e-05 | 7.369e-05  | 8.993e-05  |   0.0 |  0.00
Modify  | 1.8422     | 1.8761     | 1.923      |   2.2 | 76.77
Other   |            | 0.1994     |            |       |  8.16

Nlocal:        1.50000 ave           3 max           1 min
Histogram: 3 0 0 0 0 0 0 0 0 1
Nghost:        4.50000 ave           6 max           2 min
Histogram: 1 0 0 0 0 1 0 0 0 2
Neighs:       0.250000 ave           1 max           0 min
Histogram: 3 0 0 0 0 0 0 0 0 1

Total # of neighbors = 1
Ave neighs/atom = 0.16666667
Neighbor list builds = 875
Dangerous builds = 0
fix myat1 all ave/time 10 10 100 v_xave v_xdes file position.${a}.dat
fix myat1 all ave/time 10 10 100 v_xave v_xdes file position.8.dat
run 200000
Per MPI rank memory allocation (min/avg/max) = 4.571 | 4.571 | 4.571 Mbytes
Step Temp E_pair E_mol TotEng Press 
 3000000    76.294015            0            0    1.1370898   0.64973707 
 3100000    209.09718            0            0    3.1163948    1.7807188 
 3200000    86.768089            0            0     1.293196   0.73893664 
Loop time of 3.51312 on 4 procs for 200000 steps with 6 atoms

Performance: 9837.404 ns/day, 0.002 hours/ns, 56929.420 timesteps/s
99.9% CPU use with 4 MPI tasks x 1 OpenMP threads

MPI task timing breakdown:
Section |  min time  |  avg time  |  max time  |%varavg| %total
---------------------------------------------------------------
Pair    | 0.011676   | 0.014774   | 0.018018   |   2.0 |  0.42
Neigh   | 0.0028019  | 0.0030957  | 0.0034095  |   0.4 |  0.09
Comm    | 0.37443    | 0.41504    | 0.45281    |   4.5 | 11.81
Output  | 4.6912e-05 | 4.8676e-05 | 5.2252e-05 |   0.0 |  0.00
Modify  | 2.7496     | 2.79       | 2.8195     |   1.7 | 79.42
Other   |            | 0.2901     |            |       |  8.26

Nlocal:        1.50000 ave           4 max           0 min
Histogram: 2 0 0 0 0 1 0 0 0 1
Nghost:        5.50000 ave           7 max           4 min
Histogram: 1 0 0 1 0 0 1 0 0 1
Neighs:         0.00000 ave           0 max           0 min
Histogram: 4 0 0 0 0 0 0 0 0 0

Total # of neighbors = 0
Ave neighs/atom = 0.0000000
Neighbor list builds = 870
Dangerous builds = 0
unfix myat1
next a
jump SELF loop
variable xdes equal ${a}-25
variable xdes equal 9-25
variable xave equal xcm(topull,x)
fix mytth topull spring tether ${k} ${xdes} 0 0 0
fix mytth topull spring tether 1.5 ${xdes} 0 0 0
fix mytth topull spring tether 1.5 -16 0 0 0
run 200000
Per MPI rank memory allocation (min/avg/max) = 4.571 | 4.571 | 4.571 Mbytes
Step Temp E_pair E_mol TotEng Press 
 3200000    86.768089            0            0     1.293196   0.73893664 
 3300000    82.900681            0            0    1.2355559   0.70600093 
 3400000    203.53266            0            0     3.033461    1.7333301 
Loop time of 2.78685 on 4 procs for 200000 steps with 6 atoms

Performance: 12401.087 ns/day, 0.002 hours/ns, 71765.549 timesteps/s
100.0% CPU use with 4 MPI tasks x 1 OpenMP threads

MPI task timing breakdown:
Section |  min time  |  avg time  |  max time  |%varavg| %total
---------------------------------------------------------------
Pair    | 0.013055   | 0.013637   | 0.014176   |   0.4 |  0.49
Neigh   | 0.002826   | 0.0029141  | 0.00299    |   0.1 |  0.10
Comm    | 0.31017    | 0.35369    | 0.38384    |   4.6 | 12.69
Output  | 3.4434e-05 | 4.0867e-05 | 5.9686e-05 |   0.0 |  0.00
Modify  | 2.1552     | 2.1932     | 2.2423     |   2.2 | 78.70
Other   |            | 0.2234     |            |       |  8.02

Nlocal:        1.50000 ave           3 max           0 min
Histogram: 1 0 0 1 0 0 1 0 0 1
Nghost:        4.00000 ave           7 max           1 min
Histogram: 1 0 0 1 0 0 1 0 0 1
Neighs:         0.00000 ave           0 max           0 min
Histogram: 4 0 0 0 0 0 0 0 0 0

Total # of neighbors = 0
Ave neighs/atom = 0.0000000
Neighbor list builds = 877
Dangerous builds = 0
fix myat1 all ave/time 10 10 100 v_xave v_xdes file position.${a}.dat
fix myat1 all ave/time 10 10 100 v_xave v_xdes file position.9.dat
run 200000
Per MPI rank memory allocation (min/avg/max) = 4.571 | 4.571 | 4.571 Mbytes
Step Temp E_pair E_mol TotEng Press 
 3400000    203.53266            0            0     3.033461    1.7333301 
 3500000    160.85445            0            0    2.3973828    1.3698728 
 3600000    151.63111            0            0    2.2599177    1.2913248 
Loop time of 4.35794 on 4 procs for 200000 steps with 6 atoms

Performance: 7930.356 ns/day, 0.003 hours/ns, 45893.263 timesteps/s
99.8% CPU use with 4 MPI tasks x 1 OpenMP threads

MPI task timing breakdown:
Section |  min time  |  avg time  |  max time  |%varavg| %total
---------------------------------------------------------------
Pair    | 0.016916   | 0.018015   | 0.019404   |   0.7 |  0.41
Neigh   | 0.004735   | 0.0048294  | 0.0050177  |   0.2 |  0.11
Comm    | 0.44321    | 0.49718    | 0.52076    |   4.5 | 11.41
Output  | 5.5008e-05 | 5.7505e-05 | 6.3303e-05 |   0.0 |  0.00
Modify  | 3.4353     | 3.4677     | 3.5176     |   1.6 | 79.57
Other   |            | 0.3701     |            |       |  8.49

Nlocal:        1.50000 ave           2 max           1 min
Histogram: 2 0 0 0 0 0 0 0 0 2
Nghost:        1.75000 ave           3 max           0 min
Histogram: 1 0 0 0 0 0 2 0 0 1
Neighs:         0.00000 ave           0 max           0 min
Histogram: 4 0 0 0 0 0 0 0 0 0

Total # of neighbors = 0
Ave neighs/atom = 0.0000000
Neighbor list builds = 873
Dangerous builds = 0
unfix myat1
next a
jump SELF loop
variable xdes equal ${a}-25
variable xdes equal 10-25
variable xave equal xcm(topull,x)
fix mytth topull spring tether ${k} ${xdes} 0 0 0
fix mytth topull spring tether 1.5 ${xdes} 0 0 0
fix mytth topull spring tether 1.5 -15 0 0 0
run 200000
Per MPI rank memory allocation (min/avg/max) = 4.571 | 4.571 | 4.571 Mbytes
Step Temp E_pair E_mol TotEng Press 
 3600000    151.63111            0            0    2.2599177    1.2913248 
 3700000     103.9866            0            0    1.5498215   0.88557339 
 3800000    144.28222            0            0    2.1503895      1.22874 
Loop time of 3.50635 on 4 procs for 200000 steps with 6 atoms

Performance: 9856.403 ns/day, 0.002 hours/ns, 57039.367 timesteps/s
99.9% CPU use with 4 MPI tasks x 1 OpenMP threads

MPI task timing breakdown:
Section |  min time  |  avg time  |  max time  |%varavg| %total
---------------------------------------------------------------
Pair    | 0.01549    | 0.017318   | 0.019275   |   1.2 |  0.49
Neigh   | 0.0048355  | 0.0050711  | 0.0053196  |   0.2 |  0.14
Comm    | 0.2438     | 0.34741    | 0.39399    |  10.3 |  9.91
Output  | 3.707e-05  | 4.4078e-05 | 6.3207e-05 |   0.0 |  0.00
Modify  | 2.8031     | 2.8479     | 2.9456     |   3.4 | 81.22
Other   |            | 0.2886     |            |       |  8.23

Nlocal:        1.50000 ave           3 max           0 min
Histogram: 1 0 0 1 0 0 1 0 0 1
Nghost:        3.25000 ave           6 max           1 min
Histogram: 1 0 0 0 2 0 0 0 0 1
Neighs:         0.00000 ave           0 max           0 min
Histogram: 4 0 0 0 0 0 0 0 0 0

Total # of neighbors = 0
Ave neighs/atom = 0.0000000
Neighbor list builds = 890
Dangerous builds = 0
fix myat1 all ave/time 10 10 100 v_xave v_xdes file position.${a}.dat
fix myat1 all ave/time 10 10 100 v_xave v_xdes file position.10.dat
run 200000
Per MPI rank memory allocation (min/avg/max) = 4.571 | 4.571 | 4.571 Mbytes
Step Temp E_pair E_mol TotEng Press 
 3800000    144.28222            0            0    2.1503895      1.22874 
 3900000    136.36144            0            0    2.0323378    1.1612849 
 4000000    180.76799            0            0    2.6941752     1.539461 
Loop time of 4.51799 on 4 procs for 200000 steps with 6 atoms

Performance: 7649.425 ns/day, 0.003 hours/ns, 44267.508 timesteps/s
99.7% CPU use with 4 MPI tasks x 1 OpenMP threads

MPI task timing breakdown:
Section |  min time  |  avg time  |  max time  |%varavg| %total
---------------------------------------------------------------
Pair    | 0.01727    | 0.019572   | 0.020981   |   1.0 |  0.43
Neigh   | 0.0048575  | 0.0051434  | 0.005354   |   0.3 |  0.11
Comm    | 0.4324     | 0.47873    | 0.55319    |   6.6 | 10.60
Output  | 0.00011037 | 0.0001221  | 0.0001271  |   0.0 |  0.00
Modify  | 3.572      | 3.626      | 3.6688     |   1.9 | 80.26
Other   |            | 0.3884     |            |       |  8.60

Nlocal:        1.50000 ave           3 max           0 min
Histogram: 1 0 0 1 0 0 1 0 0 1
Nghost:        2.50000 ave           4 max           2 min
Histogram: 3 0 0 0 0 0 0 0 0 1
Neighs:         0.00000 ave           0 max           0 min
Histogram: 4 0 0 0 0 0 0 0 0 0

Total # of neighbors = 0
Ave neighs/atom = 0.0000000
Neighbor list builds = 865
Dangerous builds = 0
unfix myat1
next a
jump SELF loop
variable xdes equal ${a}-25
variable xdes equal 11-25
variable xave equal xcm(topull,x)
fix mytth topull spring tether ${k} ${xdes} 0 0 0
fix mytth topull spring tether 1.5 ${xdes} 0 0 0
fix mytth topull spring tether 1.5 -14 0 0 0
run 200000
Per MPI rank memory allocation (min/avg/max) = 4.571 | 4.571 | 4.571 Mbytes
Step Temp E_pair E_mol TotEng Press 
 4000000    180.76799            0            0    2.6941752     1.539461 
 4100000    148.92208            0            0    2.2195422    1.2682541 
 4200000    121.49636            0            0    1.8107879    1.0346905 
Loop time of 3.94708 on 4 procs for 200000 steps with 6 atoms

Performance: 8755.832 ns/day, 0.003 hours/ns, 50670.327 timesteps/s
99.9% CPU use with 4 MPI tasks x 1 OpenMP threads

MPI task timing breakdown:
Section |  min time  |  avg time  |  max time  |%varavg| %total
---------------------------------------------------------------
Pair    | 0.016407   | 0.017944   | 0.019155   |   0.8 |  0.45
Neigh   | 0.0048484  | 0.0049742  | 0.0050446  |   0.1 |  0.13
Comm    | 0.4055     | 0.45866    | 0.48336    |   4.7 | 11.62
Output  | 7.4223e-05 | 8.7097e-05 | 0.00012025 |   0.0 |  0.00
Modify  | 3.1166     | 3.1452     | 3.1984     |   1.9 | 79.69
Other   |            | 0.3202     |            |       |  8.11

Nlocal:        1.50000 ave           3 max           0 min
Histogram: 1 0 0 1 0 0 1 0 0 1
Nghost:        2.50000 ave           4 max           2 min
Histogram: 3 0 0 0 0 0 0 0 0 1
Neighs:         0.00000 ave           0 max           0 min
Histogram: 4 0 0 0 0 0 0 0 0 0

Total # of neighbors = 0
Ave neighs/atom = 0.0000000
Neighbor list builds = 872
Dangerous builds = 0
fix myat1 all ave/time 10 10 100 v_xave v_xdes file position.${a}.dat
fix myat1 all ave/time 10 10 100 v_xave v_xdes file position.11.dat
run 200000
Per MPI rank memory allocation (min/avg/max) = 4.571 | 4.571 | 4.571 Mbytes
Step Temp E_pair E_mol TotEng Press 
 4200000    121.49636            0            0    1.8107879    1.0346905 
 4300000    159.62061            0            0    2.3789935    1.3593651 
 4400000    221.01161            0            0    3.2939681    1.8821848 
Loop time of 4.03752 on 4 procs for 200000 steps with 6 atoms

Performance: 8559.702 ns/day, 0.003 hours/ns, 49535.314 timesteps/s
99.9% CPU use with 4 MPI tasks x 1 OpenMP threads

MPI task timing breakdown:
Section |  min time  |  avg time  |  max time  |%varavg| %total
---------------------------------------------------------------
Pair    | 0.015995   | 0.017432   | 0.019913   |   1.1 |  0.43
Neigh   | 0.0042693  | 0.0043992  | 0.0045397  |   0.1 |  0.11
Comm    | 0.37167    | 0.38924    | 0.40681    |   2.2 |  9.64
Output  | 5.1206e-05 | 5.5042e-05 | 6.0213e-05 |   0.0 |  0.00
Modify  | 3.2794     | 3.288      | 3.3003     |   0.4 | 81.43
Other   |            | 0.3384     |            |       |  8.38

Nlocal:        1.50000 ave           3 max           0 min
Histogram: 1 0 0 1 0 0 1 0 0 1
Nghost:        3.25000 ave           5 max           2 min
Histogram: 2 0 0 0 0 0 1 0 0 1
Neighs:         0.00000 ave           0 max           0 min
Histogram: 4 0 0 0 0 0 0 0 0 0

Total # of neighbors = 0
Ave neighs/atom = 0.0000000
Neighbor list builds = 870
Dangerous builds = 0
unfix myat1
next a
jump SELF loop
variable xdes equal ${a}-25
variable xdes equal 12-25
variable xave equal xcm(topull,x)
fix mytth topull spring tether ${k} ${xdes} 0 0 0
fix mytth topull spring tether 1.5 ${xdes} 0 0 0
fix mytth topull spring tether 1.5 -13 0 0 0
run 200000
Per MPI rank memory allocation (min/avg/max) = 4.571 | 4.571 | 4.571 Mbytes
Step Temp E_pair E_mol TotEng Press 
 4400000    221.01161            0            0    3.2939681    1.8821848 
 4500000    134.58569            0            0    2.0058719    1.1461621 
 4600000    91.873552            0            0     1.369288   0.78241592 
Loop time of 3.85549 on 4 procs for 200000 steps with 6 atoms

Performance: 8963.846 ns/day, 0.003 hours/ns, 51874.110 timesteps/s
99.8% CPU use with 4 MPI tasks x 1 OpenMP threads

MPI task timing breakdown:
Section |  min time  |  avg time  |  max time  |%varavg| %total
---------------------------------------------------------------
Pair    | 0.016751   | 0.018361   | 0.019829   |   0.9 |  0.48
Neigh   | 0.0044448  | 0.0047121  | 0.0048684  |   0.2 |  0.12
Comm    | 0.3606     | 0.42179    | 0.4695     |   6.0 | 10.94
Output  | 3.4532e-05 | 4.0932e-05 | 5.8323e-05 |   0.0 |  0.00
Modify  | 3.0375     | 3.0953     | 3.1633     |   2.5 | 80.28
Other   |            | 0.3153     |            |       |  8.18

Nlocal:        1.50000 ave           2 max           1 min
Histogram: 2 0 0 0 0 0 0 0 0 2
Nghost:        1.75000 ave           2 max           1 min
Histogram: 1 0 0 0 0 0 0 0 0 3
Neighs:         0.00000 ave           0 max           0 min
Histogram: 4 0 0 0 0 0 0 0 0 0

Total # of neighbors = 0
Ave neighs/atom = 0.0000000
Neighbor list builds = 855
Dangerous builds = 0
fix myat1 all ave/time 10 10 100 v_xave v_xdes file position.${a}.dat
fix myat1 all ave/time 10 10 100 v_xave v_xdes file position.12.dat
run 200000
Per MPI rank memory allocation (min/avg/max) = 4.571 | 4.571 | 4.571 Mbytes
Step Temp E_pair E_mol TotEng Press 
 4600000    91.873552            0            0     1.369288   0.78241592 
 4700000    213.10246            0            0    3.1760898    1.8148287 
 4800000    94.575866            0            0    1.4095635   0.80542944 
Loop time of 4.60657 on 4 procs for 200000 steps with 6 atoms

Performance: 7502.333 ns/day, 0.003 hours/ns, 43416.281 timesteps/s
99.8% CPU use with 4 MPI tasks x 1 OpenMP threads

MPI task timing breakdown:
Section |  min time  |  avg time  |  max time  |%varavg| %total
---------------------------------------------------------------
Pair    | 0.016283   | 0.019249   | 0.021587   |   1.4 |  0.42
Neigh   | 0.0051144  | 0.0053659  | 0.0055889  |   0.2 |  0.12
Comm    | 0.43538    | 0.48839    | 0.53731    |   6.6 | 10.60
Output  | 5.5044e-05 | 5.7292e-05 | 6.3685e-05 |   0.0 |  0.00
Modify  | 3.6533     | 3.7066     | 3.7597     |   2.3 | 80.46
Other   |            | 0.3869     |            |       |  8.40

Nlocal:        1.50000 ave           2 max           1 min
Histogram: 2 0 0 0 0 0 0 0 0 2
Nghost:        3.50000 ave           7 max           0 min
Histogram: 1 0 0 0 1 1 0 0 0 1
Neighs:         0.00000 ave           0 max           0 min
Histogram: 4 0 0 0 0 0 0 0 0 0

Total # of neighbors = 0
Ave neighs/atom = 0.0000000
Neighbor list builds = 866
Dangerous builds = 0
unfix myat1
next a
jump SELF loop
variable xdes equal ${a}-25
variable xdes equal 13-25
variable xave equal xcm(topull,x)
fix mytth topull spring tether ${k} ${xdes} 0 0 0
fix mytth topull spring tether 1.5 ${xdes} 0 0 0
fix mytth topull spring tether 1.5 -12 0 0 0
run 200000
Per MPI rank memory allocation (min/avg/max) = 4.571 | 4.571 | 4.571 Mbytes
Step Temp E_pair E_mol TotEng Press 
 4800000    94.575866            0            0    1.4095635   0.80542944 
 4900000    97.401665            0            0    1.4516793   0.82949458 
 5000000     130.4093            0            0    1.9436268    1.1105951 
Loop time of 3.07179 on 4 procs for 200000 steps with 6 atoms

Performance: 11250.764 ns/day, 0.002 hours/ns, 65108.587 timesteps/s
99.9% CPU use with 4 MPI tasks x 1 OpenMP threads

MPI task timing breakdown:
Section |  min time  |  avg time  |  max time  |%varavg| %total
---------------------------------------------------------------
Pair    | 0.01449    | 0.014893   | 0.015091   |   0.2 |  0.48
Neigh   | 0.0032746  | 0.0033578  | 0.0034354  |   0.1 |  0.11
Comm    | 0.37155    | 0.39384    | 0.42042    |   3.5 | 12.82
Output  | 0.00019857 | 0.00020588 | 0.00022653 |   0.0 |  0.01
Modify  | 2.3771     | 2.4127     | 2.4434     |   1.9 | 78.55
Other   |            | 0.2468     |            |       |  8.03

Nlocal:        1.50000 ave           3 max           1 min
Histogram: 3 0 0 0 0 0 0 0 0 1
Nghost:        3.00000 ave           3 max           3 min
Histogram: 4 0 0 0 0 0 0 0 0 0
Neighs:         0.00000 ave           0 max           0 min
Histogram: 4 0 0 0 0 0 0 0 0 0

Total # of neighbors = 0
Ave neighs/atom = 0.0000000
Neighbor list builds = 863
Dangerous builds = 0
fix myat1 all ave/time 10 10 100 v_xave v_xdes file position.${a}.dat
fix myat1 all ave/time 10 10 100 v_xave v_xdes file position.13.dat
run 200000
Per MPI rank memory allocation (min/avg/max) = 4.571 | 4.571 | 4.571 Mbytes
Step Temp E_pair E_mol TotEng Press 
 5000000     130.4093            0            0    1.9436268    1.1105951 
 5100000    123.05583            0            0    1.8340303    1.0479712 
 5200000    162.76203            0            0    2.4258135    1.3861182 
Loop time of 4.20859 on 4 procs for 200000 steps with 6 atoms

Performance: 8211.774 ns/day, 0.003 hours/ns, 47521.842 timesteps/s
99.9% CPU use with 4 MPI tasks x 1 OpenMP threads

MPI task timing breakdown:
Section |  min time  |  avg time  |  max time  |%varavg| %total
---------------------------------------------------------------
Pair    | 0.016231   | 0.017629   | 0.018524   |   0.7 |  0.42
Neigh   | 0.0045995  | 0.0048921  | 0.0051357  |   0.3 |  0.12
Comm    | 0.43648    | 0.49021    | 0.52633    |   4.8 | 11.65
Output  | 6.6673e-05 | 0.00011496 | 0.00013243 |   0.0 |  0.00
Modify  | 3.3009     | 3.3509     | 3.4055     |   2.0 | 79.62
Other   |            | 0.3448     |            |       |  8.19

Nlocal:        1.50000 ave           3 max           1 min
Histogram: 3 0 0 0 0 0 0 0 0 1
Nghost:        5.50000 ave           7 max           5 min
Histogram: 3 0 0 0 0 0 0 0 0 1
Neighs:         0.00000 ave           0 max           0 min
Histogram: 4 0 0 0 0 0 0 0 0 0

Total # of neighbors = 0
Ave neighs/atom = 0.0000000
Neighbor list builds = 870
Dangerous builds = 0
unfix myat1
next a
jump SELF loop
variable xdes equal ${a}-25
variable xdes equal 14-25
variable xave equal xcm(topull,x)
fix mytth topull spring tether ${k} ${xdes} 0 0 0
fix mytth topull spring tether 1.5 ${xdes} 0 0 0
fix mytth topull spring tether 1.5 -11 0 0 0
run 200000
Per MPI rank memory allocation (min/avg/max) = 4.571 | 4.571 | 4.571 Mbytes
Step Temp E_pair E_mol TotEng Press 
 5200000    162.76203            0            0    2.4258135    1.3861182 
 5300000    166.39553            0            0    2.4799673    1.4170619 
 5400000    157.83176            0            0    2.3523325    1.3441309 
Loop time of 3.58547 on 4 procs for 200000 steps with 6 atoms

Performance: 9638.900 ns/day, 0.002 hours/ns, 55780.673 timesteps/s
99.9% CPU use with 4 MPI tasks x 1 OpenMP threads

MPI task timing breakdown:
Section |  min time  |  avg time  |  max time  |%varavg| %total
---------------------------------------------------------------
Pair    | 0.014534   | 0.015885   | 0.018007   |   1.1 |  0.44
Neigh   | 0.0033819  | 0.0035577  | 0.0036791  |   0.2 |  0.10
Comm    | 0.38234    | 0.43279    | 0.49058    |   5.8 | 12.07
Output  | 5.09e-05   | 6.4321e-05 | 0.00010329 |   0.0 |  0.00
Modify  | 2.794      | 2.8566     | 2.9094     |   2.5 | 79.67
Other   |            | 0.2766     |            |       |  7.71

Nlocal:        1.50000 ave           2 max           1 min
Histogram: 2 0 0 0 0 0 0 0 0 2
Nghost:        3.00000 ave           5 max           1 min
Histogram: 1 0 1 0 0 0 0 1 0 1
Neighs:       0.250000 ave           1 max           0 min
Histogram: 3 0 0 0 0 0 0 0 0 1

Total # of neighbors = 1
Ave neighs/atom = 0.16666667
Neighbor list builds = 885
Dangerous builds = 0
fix myat1 all ave/time 10 10 100 v_xave v_xdes file position.${a}.dat
fix myat1 all ave/time 10 10 100 v_xave v_xdes file position.14.dat
run 200000
Per MPI rank memory allocation (min/avg/max) = 4.571 | 4.571 | 4.571 Mbytes
Step Temp E_pair E_mol TotEng Press 
 5400000    157.83176            0            0    2.3523325    1.3441309 
 5500000    150.81467            0            0    2.2477495    1.2843718 
 5600000    78.420851            0            0    1.1687883   0.66784968 
Loop time of 4.19472 on 4 procs for 200000 steps with 6 atoms

Performance: 8238.927 ns/day, 0.003 hours/ns, 47678.978 timesteps/s
100.0% CPU use with 4 MPI tasks x 1 OpenMP threads

MPI task timing breakdown:
Section |  min time  |  avg time  |  max time  |%varavg| %total
---------------------------------------------------------------
Pair    | 0.014409   | 0.016959   | 0.020061   |   1.5 |  0.40
Neigh   | 0.0037495  | 0.0040039  | 0.0041467  |   0.2 |  0.10
Comm    | 0.37469    | 0.40479    | 0.44185    |   4.6 |  9.65
Output  | 5.851e-05  | 5.9027e-05 | 5.9868e-05 |   0.0 |  0.00
Modify  | 3.3899     | 3.4187     | 3.4457     |   1.4 | 81.50
Other   |            | 0.3502     |            |       |  8.35

Nlocal:        1.50000 ave           2 max           1 min
Histogram: 2 0 0 0 0 0 0 0 0 2
Nghost:        2.50000 ave           4 max           1 min
Histogram: 1 0 0 1 0 0 1 0 0 1
Neighs:         0.00000 ave           0 max           0 min
Histogram: 4 0 0 0 0 0 0 0 0 0

Total # of neighbors = 0
Ave neighs/atom = 0.0000000
Neighbor list builds = 863
Dangerous builds = 0
unfix myat1
next a
jump SELF loop
variable xdes equal ${a}-25
variable xdes equal 15-25
variable xave equal xcm(topull,x)
fix mytth topull spring tether ${k} ${xdes} 0 0 0
fix mytth topull spring tether 1.5 ${xdes} 0 0 0
fix mytth topull spring tether 1.5 -10 0 0 0
run 200000
Per MPI rank memory allocation (min/avg/max) = 4.571 | 4.571 | 4.571 Mbytes
Step Temp E_pair E_mol TotEng Press 
 5600000    78.420851            0            0    1.1687883   0.66784968 
 5700000    94.667936            0            0    1.4109357   0.80621352 
 5800000    142.62423            0            0    2.1256786    1.2146201 
Loop time of 3.31193 on 4 procs for 200000 steps with 6 atoms

Performance: 10434.991 ns/day, 0.002 hours/ns, 60387.677 timesteps/s
99.9% CPU use with 4 MPI tasks x 1 OpenMP threads

MPI task timing breakdown:
Section |  min time  |  avg time  |  max time  |%varavg| %total
---------------------------------------------------------------
Pair    | 0.014885   | 0.01566    | 0.017468   |   0.9 |  0.47
Neigh   | 0.0040849  | 0.0042292  | 0.0043143  |   0.1 |  0.13
Comm    | 0.29221    | 0.36315    | 0.41432    |   7.7 | 10.97
Output  | 3.9788e-05 | 4.6762e-05 | 6.6722e-05 |   0.0 |  0.00
Modify  | 2.6063     | 2.6671     | 2.7446     |   3.3 | 80.53
Other   |            | 0.2617     |            |       |  7.90

Nlocal:        1.50000 ave           3 max           0 min
Histogram: 1 0 0 1 0 0 1 0 0 1
Nghost:        2.50000 ave           4 max           1 min
Histogram: 1 0 0 1 0 0 1 0 0 1
Neighs:         0.00000 ave           0 max           0 min
Histogram: 4 0 0 0 0 0 0 0 0 0

Total # of neighbors = 0
Ave neighs/atom = 0.0000000
Neighbor list builds = 880
Dangerous builds = 0
fix myat1 all ave/time 10 10 100 v_xave v_xdes file position.${a}.dat
fix myat1 all ave/time 10 10 100 v_xave v_xdes file position.15.dat
run 200000
Per MPI rank memory allocation (min/avg/max) = 4.571 | 4.571 | 4.571 Mbytes
Step Temp E_pair E_mol TotEng Press 
 5800000    142.62423            0            0    2.1256786    1.2146201 
 5900000    153.71355            0            0    2.2909545    1.3090593 
 6000000    139.24822            0            0    2.0753625    1.1858693 
Loop time of 3.87598 on 4 procs for 200000 steps with 6 atoms

Performance: 8916.465 ns/day, 0.003 hours/ns, 51599.914 timesteps/s
99.8% CPU use with 4 MPI tasks x 1 OpenMP threads

MPI task timing breakdown:
Section |  min time  |  avg time  |  max time  |%varavg| %total
---------------------------------------------------------------
Pair    | 0.015061   | 0.016179   | 0.018202   |   1.0 |  0.42
Neigh   | 0.0037667  | 0.003935   | 0.0041136  |   0.2 |  0.10
Comm    | 0.32933    | 0.40812    | 0.47095    |   8.4 | 10.53
Output  | 8.4322e-05 | 8.6607e-05 | 9.1237e-05 |   0.0 |  0.00
Modify  | 3.0791     | 3.1272     | 3.2037     |   2.8 | 80.68
Other   |            | 0.3204     |            |       |  8.27

Nlocal:        1.50000 ave           3 max           1 min
Histogram: 3 0 0 0 0 0 0 0 0 1
Nghost:        3.50000 ave           4 max           3 min
Histogram: 2 0 0 0 0 0 0 0 0 2
Neighs:         0.00000 ave           0 max           0 min
Histogram: 4 0 0 0 0 0 0 0 0 0

Total # of neighbors = 0
Ave neighs/atom = 0.0000000
Neighbor list builds = 880
Dangerous builds = 0
unfix myat1
next a
jump SELF loop
variable xdes equal ${a}-25
variable xdes equal 16-25
variable xave equal xcm(topull,x)
fix mytth topull spring tether ${k} ${xdes} 0 0 0
fix mytth topull spring tether 1.5 ${xdes} 0 0 0
fix mytth topull spring tether 1.5 -9 0 0 0
run 200000
Per MPI rank memory allocation (min/avg/max) = 4.571 | 4.571 | 4.571 Mbytes
Step Temp E_pair E_mol TotEng Press 
 6000000    139.24822            0            0    2.0753625    1.1858693 
 6100000    110.15625            0            0    1.6417743   0.93811551 
 6200000    230.97448            0            0    3.4424552    1.9670308 
Loop time of 2.75385 on 4 procs for 200000 steps with 6 atoms

Performance: 12549.709 ns/day, 0.002 hours/ns, 72625.629 timesteps/s
100.0% CPU use with 4 MPI tasks x 1 OpenMP threads

MPI task timing breakdown:
Section |  min time  |  avg time  |  max time  |%varavg| %total
---------------------------------------------------------------
Pair    | 0.012274   | 0.013483   | 0.014601   |   0.7 |  0.49
Neigh   | 0.0029033  | 0.002984   | 0.003068   |   0.1 |  0.11
Comm    | 0.30013    | 0.33309    | 0.36094    |   3.8 | 12.10
Output  | 3.3448e-05 | 3.9378e-05 | 5.5864e-05 |   0.0 |  0.00
Modify  | 2.147      | 2.18       | 2.2157     |   1.8 | 79.16
Other   |            | 0.2243     |            |       |  8.14

Nlocal:        1.50000 ave           2 max           1 min
Histogram: 2 0 0 0 0 0 0 0 0 2
Nghost:        3.25000 ave           4 max           3 min
Histogram: 3 0 0 0 0 0 0 0 0 1
Neighs:         0.00000 ave           0 max           0 min
Histogram: 4 0 0 0 0 0 0 0 0 0

Total # of neighbors = 0
Ave neighs/atom = 0.0000000
Neighbor list builds = 868
Dangerous builds = 0
fix myat1 all ave/time 10 10 100 v_xave v_xdes file position.${a}.dat
fix myat1 all ave/time 10 10 100 v_xave v_xdes file position.16.dat
run 200000
Per MPI rank memory allocation (min/avg/max) = 4.571 | 4.571 | 4.571 Mbytes
Step Temp E_pair E_mol TotEng Press 
 6200000    230.97448            0            0    3.4424552    1.9670308 
 6300000     243.7406            0            0    3.6327222      2.07575 
 6400000    109.99314            0            0    1.6393433   0.93672645 
Loop time of 4.07037 on 4 procs for 200000 steps with 6 atoms

Performance: 8490.627 ns/day, 0.003 hours/ns, 49135.575 timesteps/s
99.9% CPU use with 4 MPI tasks x 1 OpenMP threads

MPI task timing breakdown:
Section |  min time  |  avg time  |  max time  |%varavg| %total
---------------------------------------------------------------
Pair    | 0.014295   | 0.016799   | 0.019192   |   1.5 |  0.41
Neigh   | 0.0043199  | 0.0045545  | 0.0048588  |   0.3 |  0.11
Comm    | 0.40889    | 0.43133    | 0.45427    |   2.8 | 10.60
Output  | 5.7047e-05 | 6.8886e-05 | 0.00010353 |   0.0 |  0.00
Modify  | 3.2356     | 3.27       | 3.2889     |   1.1 | 80.34
Other   |            | 0.3476     |            |       |  8.54

Nlocal:        1.50000 ave           3 max           0 min
Histogram: 1 0 0 1 0 0 1 0 0 1
Nghost:        2.50000 ave           3 max           2 min
Histogram: 2 0 0 0 0 0 0 0 0 2
Neighs:         0.00000 ave           0 max           0 min
Histogram: 4 0 0 0 0 0 0 0 0 0

Total # of neighbors = 0
Ave neighs/atom = 0.0000000
Neighbor list builds = 874
Dangerous builds = 0
unfix myat1
next a
jump SELF loop
variable xdes equal ${a}-25
variable xdes equal 17-25
variable xave equal xcm(topull,x)
fix mytth topull spring tether ${k} ${xdes} 0 0 0
fix mytth topull spring tether 1.5 ${xdes} 0 0 0
fix mytth topull spring tether 1.5 -8 0 0 0
run 200000
Per MPI rank memory allocation (min/avg/max) = 4.571 | 4.571 | 4.571 Mbytes
Step Temp E_pair E_mol TotEng Press 
 6400000    109.99314            0            0    1.6393433   0.93672645 
 6500000    207.54277            0            0    3.0932278    1.7674811 
 6600000    101.21993            0            0    1.5085869   0.86201176 
Loop time of 3.12925 on 4 procs for 200000 steps with 6 atoms

Performance: 11044.179 ns/day, 0.002 hours/ns, 63913.073 timesteps/s
99.9% CPU use with 4 MPI tasks x 1 OpenMP threads

MPI task timing breakdown:
Section |  min time  |  avg time  |  max time  |%varavg| %total
---------------------------------------------------------------
Pair    | 0.014698   | 0.015872   | 0.017612   |   0.9 |  0.51
Neigh   | 0.0042824  | 0.0043907  | 0.0044714  |   0.1 |  0.14
Comm    | 0.23995    | 0.32112    | 0.36935    |   8.7 | 10.26
Output  | 3.9899e-05 | 4.6652e-05 | 6.5029e-05 |   0.0 |  0.00
Modify  | 2.4641     | 2.5177     | 2.5929     |   3.0 | 80.46
Other   |            | 0.2701     |            |       |  8.63

Nlocal:        1.50000 ave           2 max           1 min
Histogram: 2 0 0 0 0 0 0 0 0 2
Nghost:        2.00000 ave           3 max           1 min
Histogram: 1 0 0 0 0 2 0 0 0 1
Neighs:       0.250000 ave           1 max           0 min
Histogram: 3 0 0 0 0 0 0 0 0 1

Total # of neighbors = 1
Ave neighs/atom = 0.16666667
Neighbor list builds = 875
Dangerous builds = 0
fix myat1 all ave/time 10 10 100 v_xave v_xdes file position.${a}.dat
fix myat1 all ave/time 10 10 100 v_xave v_xdes file position.17.dat
run 200000
Per MPI rank memory allocation (min/avg/max) = 4.571 | 4.571 | 4.571 Mbytes
Step Temp E_pair E_mol TotEng Press 
 6600000    101.21993            0            0    1.5085869   0.86201176 
 6700000    108.13029            0            0    1.6115793   0.92086201 
 6800000     140.1684            0            0    2.0890769    1.1937058 
Loop time of 4.6706 on 4 procs for 200000 steps with 6 atoms

Performance: 7399.476 ns/day, 0.003 hours/ns, 42821.040 timesteps/s
99.6% CPU use with 4 MPI tasks x 1 OpenMP threads

MPI task timing breakdown:
Section |  min time  |  avg time  |  max time  |%varavg| %total
---------------------------------------------------------------
Pair    | 0.018947   | 0.020797   | 0.022115   |   0.8 |  0.45
Neigh   | 0.0052884  | 0.0054832  | 0.0057164  |   0.2 |  0.12
Comm    | 0.29882    | 0.40062    | 0.46564    |  10.0 |  8.58
Output  | 0.00011126 | 0.00013156 | 0.00019106 |   0.0 |  0.00
Modify  | 3.783      | 3.8365     | 3.9258     |   2.8 | 82.14
Other   |            | 0.4071     |            |       |  8.72

Nlocal:        1.50000 ave           3 max           1 min
Histogram: 3 0 0 0 0 0 0 0 0 1
Nghost:        2.25000 ave           4 max           1 min
Histogram: 1 0 0 2 0 0 0 0 0 1
Neighs:         0.00000 ave           0 max           0 min
Histogram: 4 0 0 0 0 0 0 0 0 0

Total # of neighbors = 0
Ave neighs/atom = 0.0000000
Neighbor list builds = 884
Dangerous builds = 0
unfix myat1
next a
jump SELF loop
variable xdes equal ${a}-25
variable xdes equal 18-25
variable xave equal xcm(topull,x)
fix mytth topull spring tether ${k} ${xdes} 0 0 0
fix mytth topull spring tether 1.5 ${xdes} 0 0 0
fix mytth topull spring tether 1.5 -7 0 0 0
run 200000
Per MPI rank memory allocation (min/avg/max) = 4.571 | 4.571 | 4.571 Mbytes
Step Temp E_pair E_mol TotEng Press 
 6800000     140.1684            0            0    2.0890769    1.1937058 
 6900000    197.38216            0            0    2.9417936     1.680951 
 7000000    164.62773            0            0    2.4536199    1.4020069 
Loop time of 3.40155 on 4 procs for 200000 steps with 6 atoms

Performance: 10160.068 ns/day, 0.002 hours/ns, 58796.691 timesteps/s
99.9% CPU use with 4 MPI tasks x 1 OpenMP threads

MPI task timing breakdown:
Section |  min time  |  avg time  |  max time  |%varavg| %total
---------------------------------------------------------------
Pair    | 0.015      | 0.016442   | 0.018446   |   1.0 |  0.48
Neigh   | 0.0043459  | 0.0045265  | 0.0048617  |   0.3 |  0.13
Comm    | 0.32172    | 0.39758    | 0.45165    |   7.5 | 11.69
Output  | 7.5283e-05 | 8.1069e-05 | 9.6026e-05 |   0.0 |  0.00
Modify  | 2.655      | 2.7099     | 2.7918     |   3.1 | 79.67
Other   |            | 0.273      |            |       |  8.03

Nlocal:        1.50000 ave           4 max           0 min
Histogram: 1 0 2 0 0 0 0 0 0 1
Nghost:        3.75000 ave           6 max           2 min
Histogram: 1 0 1 0 0 1 0 0 0 1
Neighs:         0.00000 ave           0 max           0 min
Histogram: 4 0 0 0 0 0 0 0 0 0

Total # of neighbors = 0
Ave neighs/atom = 0.0000000
Neighbor list builds = 870
Dangerous builds = 0
fix myat1 all ave/time 10 10 100 v_xave v_xdes file position.${a}.dat
fix myat1 all ave/time 10 10 100 v_xave v_xdes file position.18.dat
run 200000
Per MPI rank memory allocation (min/avg/max) = 4.571 | 4.571 | 4.571 Mbytes
Step Temp E_pair E_mol TotEng Press 
 7000000    164.62773            0            0    2.4536199    1.4020069 
 7100000    75.433226            0            0    1.1242606   0.64240639 
 7200000    203.24686            0            0    3.0292014    1.7308961 
Loop time of 4.15148 on 4 procs for 200000 steps with 6 atoms

Performance: 8324.741 ns/day, 0.003 hours/ns, 48175.582 timesteps/s
99.8% CPU use with 4 MPI tasks x 1 OpenMP threads

MPI task timing breakdown:
Section |  min time  |  avg time  |  max time  |%varavg| %total
---------------------------------------------------------------
Pair    | 0.015232   | 0.017401   | 0.01964    |   1.3 |  0.42
Neigh   | 0.0042224  | 0.0044198  | 0.0046451  |   0.2 |  0.11
Comm    | 0.44856    | 0.47085    | 0.5294     |   4.9 | 11.34
Output  | 5.1061e-05 | 5.4206e-05 | 6.2781e-05 |   0.0 |  0.00
Modify  | 3.2562     | 3.3173     | 3.3446     |   2.0 | 79.91
Other   |            | 0.3415     |            |       |  8.23

Nlocal:        1.50000 ave           2 max           1 min
Histogram: 2 0 0 0 0 0 0 0 0 2
Nghost:        2.75000 ave           6 max           1 min
Histogram: 2 0 0 0 1 0 0 0 0 1
Neighs:         0.00000 ave           0 max           0 min
Histogram: 4 0 0 0 0 0 0 0 0 0

Total # of neighbors = 0
Ave neighs/atom = 0.0000000
Neighbor list builds = 877
Dangerous builds = 0
unfix myat1
next a
jump SELF loop
variable xdes equal ${a}-25
variable xdes equal 19-25
variable xave equal xcm(topull,x)
fix mytth topull spring tether ${k} ${xdes} 0 0 0
fix mytth topull spring tether 1.5 ${xdes} 0 0 0
fix mytth topull spring tether 1.5 -6 0 0 0
run 200000
Per MPI rank memory allocation (min/avg/max) = 4.571 | 4.571 | 4.571 Mbytes
Step Temp E_pair E_mol TotEng Press 
 7200000    203.24686            0            0    3.0292014    1.7308961 
 7300000    175.04541            0            0    2.6088856    1.4907262 
 7400000    126.83276            0            0    1.8903218    1.0801364 
Loop time of 3.66548 on 4 procs for 200000 steps with 6 atoms

Performance: 9428.500 ns/day, 0.003 hours/ns, 54563.076 timesteps/s
99.9% CPU use with 4 MPI tasks x 1 OpenMP threads

MPI task timing breakdown:
Section |  min time  |  avg time  |  max time  |%varavg| %total
---------------------------------------------------------------
Pair    | 0.0158     | 0.016834   | 0.01826    |   0.7 |  0.46
Neigh   | 0.0044079  | 0.0045784  | 0.0046671  |   0.2 |  0.12
Comm    | 0.36812    | 0.40346    | 0.45243    |   4.9 | 11.01
Output  | 3.5793e-05 | 4.1999e-05 | 5.9621e-05 |   0.0 |  0.00
Modify  | 2.8955     | 2.9464     | 2.9805     |   1.9 | 80.38
Other   |            | 0.2942     |            |       |  8.03

Nlocal:        1.50000 ave           5 max           0 min
Histogram: 2 0 1 0 0 0 0 0 0 1
Nghost:        2.00000 ave           4 max           0 min
Histogram: 1 0 1 0 0 0 0 1 0 1
Neighs:       0.250000 ave           1 max           0 min
Histogram: 3 0 0 0 0 0 0 0 0 1

Total # of neighbors = 1
Ave neighs/atom = 0.16666667
Neighbor list builds = 869
Dangerous builds = 0
fix myat1 all ave/time 10 10 100 v_xave v_xdes file position.${a}.dat
fix myat1 all ave/time 10 10 100 v_xave v_xdes file position.19.dat
run 200000
Per MPI rank memory allocation (min/avg/max) = 4.571 | 4.571 | 4.571 Mbytes
Step Temp E_pair E_mol TotEng Press 
 7400000    126.83276            0            0    1.8903218    1.0801364 
 7500000    123.28355            0            0    1.8374242    1.0499105 
 7600000    96.583758            0            0    1.4394892   0.82252909 
Loop time of 4.95238 on 4 procs for 200000 steps with 6 atoms

Performance: 6978.457 ns/day, 0.003 hours/ns, 40384.590 timesteps/s
99.7% CPU use with 4 MPI tasks x 1 OpenMP threads

MPI task timing breakdown:
Section |  min time  |  avg time  |  max time  |%varavg| %total
---------------------------------------------------------------
Pair    | 0.017087   | 0.020668   | 0.022938   |   1.5 |  0.42
Neigh   | 0.0053908  | 0.0056496  | 0.0057406  |   0.2 |  0.11
Comm    | 0.33385    | 0.42092    | 0.48504    |  10.0 |  8.50
Output  | 5.0946e-05 | 5.3688e-05 | 5.7751e-05 |   0.0 |  0.00
Modify  | 4.0117     | 4.083      | 4.157      |   2.8 | 82.45
Other   |            | 0.4221     |            |       |  8.52

Nlocal:        1.50000 ave           3 max           0 min
Histogram: 1 0 0 1 0 0 1 0 0 1
Nghost:        2.00000 ave           3 max           1 min
Histogram: 2 0 0 0 0 0 0 0 0 2
Neighs:       0.250000 ave           1 max           0 min
Histogram: 3 0 0 0 0 0 0 0 0 1

Total # of neighbors = 1
Ave neighs/atom = 0.16666667
Neighbor list builds = 872
Dangerous builds = 0
unfix myat1
next a
jump SELF loop
variable xdes equal ${a}-25
variable xdes equal 20-25
variable xave equal xcm(topull,x)
fix mytth topull spring tether ${k} ${xdes} 0 0 0
fix mytth topull spring tether 1.5 ${xdes} 0 0 0
fix mytth topull spring tether 1.5 -5 0 0 0
run 200000
Per MPI rank memory allocation (min/avg/max) = 4.571 | 4.571 | 4.571 Mbytes
Step Temp E_pair E_mol TotEng Press 
 7600000    96.583758            0            0    1.4394892   0.82252909 
 7700000    162.51531            0            0    2.4221363    1.3840171 
 7800000    109.61627            0            0    1.6337264   0.93351689 
Loop time of 3.17049 on 4 procs for 200000 steps with 6 atoms

Performance: 10900.516 ns/day, 0.002 hours/ns, 63081.690 timesteps/s
99.9% CPU use with 4 MPI tasks x 1 OpenMP threads

MPI task timing breakdown:
Section |  min time  |  avg time  |  max time  |%varavg| %total
---------------------------------------------------------------
Pair    | 0.012575   | 0.014573   | 0.016711   |   1.4 |  0.46
Neigh   | 0.0029544  | 0.0030926  | 0.0032704  |   0.2 |  0.10
Comm    | 0.30412    | 0.3853     | 0.45514    |   9.4 | 12.15
Output  | 3.2455e-05 | 3.8449e-05 | 5.5585e-05 |   0.0 |  0.00
Modify  | 2.4478     | 2.517      | 2.595      |   3.7 | 79.39
Other   |            | 0.2505     |            |       |  7.90

Nlocal:        1.50000 ave           3 max           1 min
Histogram: 3 0 0 0 0 0 0 0 0 1
Nghost:        3.50000 ave           5 max           3 min
Histogram: 3 0 0 0 0 0 0 0 0 1
Neighs:         0.00000 ave           0 max           0 min
Histogram: 4 0 0 0 0 0 0 0 0 0

Total # of neighbors = 0
Ave neighs/atom = 0.0000000
Neighbor list builds = 876
Dangerous builds = 0
fix myat1 all ave/time 10 10 100 v_xave v_xdes file position.${a}.dat
fix myat1 all ave/time 10 10 100 v_xave v_xdes file position.20.dat
run 200000
Per MPI rank memory allocation (min/avg/max) = 4.571 | 4.571 | 4.571 Mbytes
Step Temp E_pair E_mol TotEng Press 
 7800000    109.61627            0            0    1.6337264   0.93351689 
 7900000    201.89204            0            0    3.0090091    1.7193582 
 8000000    157.39388            0            0    2.3458064    1.3404019 
Loop time of 3.89706 on 4 procs for 200000 steps with 6 atoms

Performance: 8868.227 ns/day, 0.003 hours/ns, 51320.759 timesteps/s
99.8% CPU use with 4 MPI tasks x 1 OpenMP threads

MPI task timing breakdown:
Section |  min time  |  avg time  |  max time  |%varavg| %total
---------------------------------------------------------------
Pair    | 0.013507   | 0.016014   | 0.01945    |   1.7 |  0.41
Neigh   | 0.0034897  | 0.003718   | 0.0041071  |   0.4 |  0.10
Comm    | 0.39485    | 0.4289     | 0.46902    |   4.4 | 11.01
Output  | 8.7094e-05 | 8.9328e-05 | 9.3081e-05 |   0.0 |  0.00
Modify  | 3.0753     | 3.1214     | 3.1621     |   2.1 | 80.10
Other   |            | 0.327      |            |       |  8.39

Nlocal:        1.50000 ave           4 max           0 min
Histogram: 2 0 0 0 0 1 0 0 0 1
Nghost:        4.00000 ave           5 max           3 min
Histogram: 1 0 0 0 0 2 0 0 0 1
Neighs:         0.00000 ave           0 max           0 min
Histogram: 4 0 0 0 0 0 0 0 0 0

Total # of neighbors = 0
Ave neighs/atom = 0.0000000
Neighbor list builds = 885
Dangerous builds = 0
unfix myat1
next a
jump SELF loop
variable xdes equal ${a}-25
variable xdes equal 21-25
variable xave equal xcm(topull,x)
fix mytth topull spring tether ${k} ${xdes} 0 0 0
fix mytth topull spring tether 1.5 ${xdes} 0 0 0
fix mytth topull spring tether 1.5 -4 0 0 0
run 200000
Per MPI rank memory allocation (min/avg/max) = 4.571 | 4.571 | 4.571 Mbytes
Step Temp E_pair E_mol TotEng Press 
 8000000    157.39388            0            0    2.3458064    1.3404019 
 8100000    104.26435            0            0    1.5539612   0.88793878 
 8200000    208.78624            0            0    3.1117607    1.7780708 
Loop time of 2.81266 on 4 procs for 200000 steps with 6 atoms

Performance: 12287.304 ns/day, 0.002 hours/ns, 71107.081 timesteps/s
99.9% CPU use with 4 MPI tasks x 1 OpenMP threads

MPI task timing breakdown:
Section |  min time  |  avg time  |  max time  |%varavg| %total
---------------------------------------------------------------
Pair    | 0.012057   | 0.013338   | 0.014935   |   0.9 |  0.47
Neigh   | 0.0029401  | 0.0029773  | 0.0030696  |   0.1 |  0.11
Comm    | 0.35002    | 0.38023    | 0.41429    |   4.7 | 13.52
Output  | 3.7015e-05 | 4.4775e-05 | 6.3611e-05 |   0.0 |  0.00
Modify  | 2.156      | 2.1987     | 2.2402     |   2.7 | 78.17
Other   |            | 0.2173     |            |       |  7.73

Nlocal:        1.50000 ave           2 max           0 min
Histogram: 1 0 0 0 0 0 0 0 0 3
Nghost:        2.50000 ave           3 max           2 min
Histogram: 2 0 0 0 0 0 0 0 0 2
Neighs:         0.00000 ave           0 max           0 min
Histogram: 4 0 0 0 0 0 0 0 0 0

Total # of neighbors = 0
Ave neighs/atom = 0.0000000
Neighbor list builds = 854
Dangerous builds = 0
fix myat1 all ave/time 10 10 100 v_xave v_xdes file position.${a}.dat
fix myat1 all ave/time 10 10 100 v_xave v_xdes file position.21.dat
run 200000
Per MPI rank memory allocation (min/avg/max) = 4.571 | 4.571 | 4.571 Mbytes
Step Temp E_pair E_mol TotEng Press 
 8200000    208.78624            0            0    3.1117607    1.7780708 
 8300000    106.23133            0            0    1.5832771   0.90469002 
 8400000    200.91944            0            0    2.9945134    1.7110753 
Loop time of 4.24889 on 4 procs for 200000 steps with 6 atoms

Performance: 8133.890 ns/day, 0.003 hours/ns, 47071.124 timesteps/s
99.8% CPU use with 4 MPI tasks x 1 OpenMP threads

MPI task timing breakdown:
Section |  min time  |  avg time  |  max time  |%varavg| %total
---------------------------------------------------------------
Pair    | 0.014205   | 0.016447   | 0.019417   |   1.5 |  0.39
Neigh   | 0.0037369  | 0.0039426  | 0.0041645  |   0.2 |  0.09
Comm    | 0.48797    | 0.55363    | 0.59532    |   5.4 | 13.03
Output  | 6.1523e-05 | 6.3181e-05 | 6.4491e-05 |   0.0 |  0.00
Modify  | 3.3102     | 3.3408     | 3.4003     |   2.0 | 78.63
Other   |            | 0.334      |            |       |  7.86

Nlocal:        1.50000 ave           2 max           0 min
Histogram: 1 0 0 0 0 0 0 0 0 3
Nghost:        3.25000 ave           5 max           1 min
Histogram: 1 0 0 0 0 1 0 1 0 1
Neighs:         0.00000 ave           0 max           0 min
Histogram: 4 0 0 0 0 0 0 0 0 0

Total # of neighbors = 0
Ave neighs/atom = 0.0000000
Neighbor list builds = 863
Dangerous builds = 0
unfix myat1
next a
jump SELF loop
variable xdes equal ${a}-25
variable xdes equal 22-25
variable xave equal xcm(topull,x)
fix mytth topull spring tether ${k} ${xdes} 0 0 0
fix mytth topull spring tether 1.5 ${xdes} 0 0 0
fix mytth topull spring tether 1.5 -3 0 0 0
run 200000
Per MPI rank memory allocation (min/avg/max) = 4.571 | 4.571 | 4.571 Mbytes
Step Temp E_pair E_mol TotEng Press 
 8400000    200.91944            0            0    2.9945134    1.7110753 
 8500000    140.82208            0            0    2.0988193    1.1992726 
 8600000    114.48945            0            0    1.7063566   0.97501805 
Loop time of 3.72787 on 4 procs for 200000 steps with 6 atoms

Performance: 9270.710 ns/day, 0.003 hours/ns, 53649.941 timesteps/s
100.0% CPU use with 4 MPI tasks x 1 OpenMP threads

MPI task timing breakdown:
Section |  min time  |  avg time  |  max time  |%varavg| %total
---------------------------------------------------------------
Pair    | 0.010926   | 0.015143   | 0.020801   |   2.9 |  0.41
Neigh   | 0.0032846  | 0.003586   | 0.0038559  |   0.3 |  0.10
Comm    | 0.31399    | 0.39057    | 0.44963    |   8.4 | 10.48
Output  | 3.6628e-05 | 4.3167e-05 | 6.2045e-05 |   0.0 |  0.00
Modify  | 2.9751     | 3.0446     | 3.1295     |   3.5 | 81.67
Other   |            | 0.2739     |            |       |  7.35

Nlocal:        1.50000 ave           2 max           0 min
Histogram: 1 0 0 0 0 0 0 0 0 3
Nghost:        3.75000 ave           4 max           3 min
Histogram: 1 0 0 0 0 0 0 0 0 3
Neighs:         0.00000 ave           0 max           0 min
Histogram: 4 0 0 0 0 0 0 0 0 0

Total # of neighbors = 0
Ave neighs/atom = 0.0000000
Neighbor list builds = 877
Dangerous builds = 0
fix myat1 all ave/time 10 10 100 v_xave v_xdes file position.${a}.dat
fix myat1 all ave/time 10 10 100 v_xave v_xdes file position.22.dat
run 200000
Per MPI rank memory allocation (min/avg/max) = 4.571 | 4.571 | 4.571 Mbytes
Step Temp E_pair E_mol TotEng Press 
 8600000    114.48945            0            0    1.7063566   0.97501805 
 8700000    86.734789            0            0    1.2926997   0.73865306 
 8800000    180.90817            0            0    2.6962645    1.5406549 
Loop time of 3.64672 on 4 procs for 200000 steps with 6 atoms

Performance: 9477.013 ns/day, 0.003 hours/ns, 54843.827 timesteps/s
99.8% CPU use with 4 MPI tasks x 1 OpenMP threads

MPI task timing breakdown:
Section |  min time  |  avg time  |  max time  |%varavg| %total
---------------------------------------------------------------
Pair    | 0.012977   | 0.015244   | 0.019854   |   2.2 |  0.42
Neigh   | 0.0030168  | 0.0033206  | 0.0038175  |   0.5 |  0.09
Comm    | 0.32062    | 0.39143    | 0.4496     |   7.4 | 10.73
Output  | 5.9166e-05 | 6.1044e-05 | 6.4207e-05 |   0.0 |  0.00
Modify  | 2.8603     | 2.9338     | 3.0033     |   3.0 | 80.45
Other   |            | 0.3029     |            |       |  8.31

Nlocal:        1.50000 ave           2 max           0 min
Histogram: 1 0 0 0 0 0 0 0 0 3
Nghost:        2.25000 ave           3 max           1 min
Histogram: 1 0 0 0 0 1 0 0 0 2
Neighs:         0.00000 ave           0 max           0 min
Histogram: 4 0 0 0 0 0 0 0 0 0

Total # of neighbors = 0
Ave neighs/atom = 0.0000000
Neighbor list builds = 867
Dangerous builds = 0
unfix myat1
next a
jump SELF loop
variable xdes equal ${a}-25
variable xdes equal 23-25
variable xave equal xcm(topull,x)
fix mytth topull spring tether ${k} ${xdes} 0 0 0
fix mytth topull spring tether 1.5 ${xdes} 0 0 0
fix mytth topull spring tether 1.5 -2 0 0 0
run 200000
Per MPI rank memory allocation (min/avg/max) = 4.571 | 4.571 | 4.571 Mbytes
Step Temp E_pair E_mol TotEng Press 
 8800000    180.90817            0            0    2.6962645    1.5406549 
 8900000    194.34096            0            0    2.8964675    1.6550515 
 9000000    194.29532            0            0    2.8957871    1.6546628 
Loop time of 2.78327 on 4 procs for 200000 steps with 6 atoms

Performance: 12417.068 ns/day, 0.002 hours/ns, 71858.030 timesteps/s
99.9% CPU use with 4 MPI tasks x 1 OpenMP threads

MPI task timing breakdown:
Section |  min time  |  avg time  |  max time  |%varavg| %total
---------------------------------------------------------------
Pair    | 0.012144   | 0.013431   | 0.014743   |   0.9 |  0.48
Neigh   | 0.0029131  | 0.0030157  | 0.0031001  |   0.2 |  0.11
Comm    | 0.4034     | 0.41614    | 0.44244    |   2.5 | 14.95
Output  | 0.00011212 | 0.00011853 | 0.00013642 |   0.0 |  0.00
Modify  | 2.0944     | 2.1293     | 2.1536     |   1.7 | 76.50
Other   |            | 0.2212     |            |       |  7.95

Nlocal:        1.50000 ave           2 max           0 min
Histogram: 1 0 0 0 0 0 0 0 0 3
Nghost:        3.25000 ave           4 max           2 min
Histogram: 1 0 0 0 0 1 0 0 0 2
Neighs:         0.00000 ave           0 max           0 min
Histogram: 4 0 0 0 0 0 0 0 0 0

Total # of neighbors = 0
Ave neighs/atom = 0.0000000
Neighbor list builds = 866
Dangerous builds = 0
fix myat1 all ave/time 10 10 100 v_xave v_xdes file position.${a}.dat
[...]
Histogram: 1 0 0 1 0 0 1 0 0 1
Neighs:         0.00000 ave           0 max           0 min
Histogram: 4 0 0 0 0 0 0 0 0 0

Total # of neighbors = 0
Ave neighs/atom = 0.0000000
Neighbor list builds = 868
Dangerous builds = 0
unfix myat1
next a
jump SELF loop
variable xdes equal ${a}-25
variable xdes equal 45-25
variable xave equal xcm(topull,x)
fix mytth topull spring tether ${k} ${xdes} 0 0 0
fix mytth topull spring tether 1.5 ${xdes} 0 0 0
fix mytth topull spring tether 1.5 20 0 0 0
run 200000
Per MPI rank memory allocation (min/avg/max) = 4.571 | 4.571 | 4.571 Mbytes
Step Temp E_pair E_mol TotEng Press 
17600000    116.55652            0            0    1.7371643   0.99262168 
17700000    192.47333            0            0    2.8686323    1.6391464 
17800000    113.35378            0            0    1.6894304   0.96534639 
Loop time of 3.87499 on 4 procs for 200000 steps with 6 atoms

Performance: 8918.741 ns/day, 0.003 hours/ns, 51613.086 timesteps/s
99.1% CPU use with 4 MPI tasks x 1 OpenMP threads

MPI task timing breakdown:
Section |  min time  |  avg time  |  max time  |%varavg| %total
---------------------------------------------------------------
Pair    | 0.013878   | 0.016577   | 0.020791   |   2.0 |  0.43
Neigh   | 0.0045117  | 0.0047373  | 0.0050995  |   0.3 |  0.12
Comm    | 0.43891    | 0.4472     | 0.46709    |   1.7 | 11.54
Output  | 3.568e-05  | 4.3456e-05 | 6.529e-05  |   0.0 |  0.00
Modify  | 3.0697     | 3.0927     | 3.116      |   0.9 | 79.81
Other   |            | 0.3137     |            |       |  8.10

Nlocal:        1.50000 ave           4 max           0 min
Histogram: 1 0 2 0 0 0 0 0 0 1
Nghost:        2.75000 ave           4 max           0 min
Histogram: 1 0 0 0 0 0 0 1 0 2
Neighs:         0.00000 ave           0 max           0 min
Histogram: 4 0 0 0 0 0 0 0 0 0

Total # of neighbors = 0
Ave neighs/atom = 0.0000000
Neighbor list builds = 884
Dangerous builds = 0
fix myat1 all ave/time 10 10 100 v_xave v_xdes file position.${a}.dat
fix myat1 all ave/time 10 10 100 v_xave v_xdes file position.45.dat
run 200000
Per MPI rank memory allocation (min/avg/max) = 4.571 | 4.571 | 4.571 Mbytes
Step Temp E_pair E_mol TotEng Press 
17800000    113.35378            0            0    1.6894304   0.96534639 
17900000     235.1097            0            0    3.5040868    2.0022473 
18000000    174.71576            0            0    2.6039725    1.4879189 
Loop time of 4.3111 on 4 procs for 200000 steps with 6 atoms

Performance: 8016.513 ns/day, 0.003 hours/ns, 46391.858 timesteps/s
99.8% CPU use with 4 MPI tasks x 1 OpenMP threads

MPI task timing breakdown:
Section |  min time  |  avg time  |  max time  |%varavg| %total
---------------------------------------------------------------
Pair    | 0.013772   | 0.016851   | 0.02523    |   3.7 |  0.39
Neigh   | 0.0037236  | 0.0040088  | 0.0047409  |   0.7 |  0.09
Comm    | 0.47293    | 0.48566    | 0.49882    |   1.3 | 11.27
Output  | 9.9908e-05 | 0.00011238 | 0.000119   |   0.0 |  0.00
Modify  | 3.4391     | 3.4548     | 3.4791     |   0.8 | 80.14
Other   |            | 0.3496     |            |       |  8.11

Nlocal:        1.50000 ave           4 max           0 min
Histogram: 2 0 0 0 0 1 0 0 0 1
Nghost:        4.50000 ave           6 max           3 min
Histogram: 2 0 0 0 0 0 0 0 0 2
Neighs:         0.00000 ave           0 max           0 min
Histogram: 4 0 0 0 0 0 0 0 0 0

Total # of neighbors = 0
Ave neighs/atom = 0.0000000
Neighbor list builds = 877
Dangerous builds = 0
unfix myat1
next a
jump SELF loop
variable xdes equal ${a}-25
variable xdes equal 46-25
variable xave equal xcm(topull,x)
fix mytth topull spring tether ${k} ${xdes} 0 0 0
fix mytth topull spring tether 1.5 ${xdes} 0 0 0
fix mytth topull spring tether 1.5 21 0 0 0
run 200000
Per MPI rank memory allocation (min/avg/max) = 4.571 | 4.571 | 4.571 Mbytes
Step Temp E_pair E_mol TotEng Press 
18000000    174.71576            0            0    2.6039725    1.4879189 
18100000     172.9499            0            0    2.5776539    1.4728804 
18200000    149.72977            0            0    2.2315801    1.2751326 
Loop time of 2.72765 on 4 procs for 200000 steps with 6 atoms

Performance: 12670.263 ns/day, 0.002 hours/ns, 73323.279 timesteps/s
99.9% CPU use with 4 MPI tasks x 1 OpenMP threads

MPI task timing breakdown:
Section |  min time  |  avg time  |  max time  |%varavg| %total
---------------------------------------------------------------
Pair    | 0.012267   | 0.013573   | 0.014806   |   0.8 |  0.50
Neigh   | 0.0033125  | 0.003418   | 0.003591   |   0.2 |  0.13
Comm    | 0.38451    | 0.42152    | 0.45955    |   5.1 | 15.45
Output  | 7.7995e-05 | 9.9884e-05 | 0.00016186 |   0.0 |  0.00
Modify  | 2.0154     | 2.0609     | 2.1009     |   2.7 | 75.56
Other   |            | 0.2281     |            |       |  8.36

Nlocal:        1.50000 ave           2 max           1 min
Histogram: 2 0 0 0 0 0 0 0 0 2
Nghost:        3.25000 ave           4 max           2 min
Histogram: 1 0 0 0 0 1 0 0 0 2
Neighs:         0.00000 ave           0 max           0 min
Histogram: 4 0 0 0 0 0 0 0 0 0

Total # of neighbors = 0
Ave neighs/atom = 0.0000000
Neighbor list builds = 889
Dangerous builds = 0
fix myat1 all ave/time 10 10 100 v_xave v_xdes file position.${a}.dat
fix myat1 all ave/time 10 10 100 v_xave v_xdes file position.46.dat
run 200000
Per MPI rank memory allocation (min/avg/max) = 4.571 | 4.571 | 4.571 Mbytes
Step Temp E_pair E_mol TotEng Press 
18200000    149.72977            0            0    2.2315801    1.2751326 
18300000    165.36572            0            0     2.464619    1.4082918 
18400000    110.42919            0            0    1.6458422   0.94043992 
Loop time of 3.75936 on 4 procs for 200000 steps with 6 atoms

Performance: 9193.056 ns/day, 0.003 hours/ns, 53200.555 timesteps/s
99.9% CPU use with 4 MPI tasks x 1 OpenMP threads

MPI task timing breakdown:
Section |  min time  |  avg time  |  max time  |%varavg| %total
---------------------------------------------------------------
Pair    | 0.012971   | 0.016553   | 0.021206   |   2.4 |  0.44
Neigh   | 0.0034939  | 0.0038456  | 0.004328   |   0.5 |  0.10
Comm    | 0.39056    | 0.44526    | 0.48623    |   5.2 | 11.84
Output  | 5.0159e-05 | 5.2589e-05 | 5.753e-05  |   0.0 |  0.00
Modify  | 2.9143     | 2.9766     | 3.0581     |   3.0 | 79.18
Other   |            | 0.3171     |            |       |  8.43

Nlocal:        1.50000 ave           3 max           1 min
Histogram: 3 0 0 0 0 0 0 0 0 1
Nghost:        1.00000 ave           2 max           0 min
Histogram: 1 0 0 0 0 2 0 0 0 1
Neighs:         0.00000 ave           0 max           0 min
Histogram: 4 0 0 0 0 0 0 0 0 0

Total # of neighbors = 0
Ave neighs/atom = 0.0000000
Neighbor list builds = 862
Dangerous builds = 0
unfix myat1
next a
jump SELF loop
variable xdes equal ${a}-25
variable xdes equal 47-25
variable xave equal xcm(topull,x)
fix mytth topull spring tether ${k} ${xdes} 0 0 0
fix mytth topull spring tether 1.5 ${xdes} 0 0 0
fix mytth topull spring tether 1.5 22 0 0 0
run 200000
Per MPI rank memory allocation (min/avg/max) = 4.571 | 4.571 | 4.571 Mbytes
Step Temp E_pair E_mol TotEng Press 
18400000    110.42919            0            0    1.6458422   0.94043992 
18500000     138.2863            0            0    2.0610259    1.1776773 
18600000    95.023951            0            0    1.4162417   0.80924543 
Loop time of 2.7329 on 4 procs for 200000 steps with 6 atoms

Performance: 12645.911 ns/day, 0.002 hours/ns, 73182.354 timesteps/s
100.0% CPU use with 4 MPI tasks x 1 OpenMP threads

MPI task timing breakdown:
Section |  min time  |  avg time  |  max time  |%varavg| %total
---------------------------------------------------------------
Pair    | 0.012932   | 0.01398    | 0.015274   |   0.9 |  0.51
Neigh   | 0.0031659  | 0.0033012  | 0.0034438  |   0.2 |  0.12
Comm    | 0.32613    | 0.34158    | 0.35095    |   1.6 | 12.50
Output  | 3.1809e-05 | 3.7362e-05 | 5.3126e-05 |   0.0 |  0.00
Modify  | 2.1247     | 2.1428     | 2.1721     |   1.3 | 78.41
Other   |            | 0.2312     |            |       |  8.46

Nlocal:        1.50000 ave           3 max           0 min
Histogram: 1 0 0 1 0 0 1 0 0 1
Nghost:        4.00000 ave           5 max           2 min
Histogram: 1 0 0 0 0 0 1 0 0 2
Neighs:         0.00000 ave           0 max           0 min
Histogram: 4 0 0 0 0 0 0 0 0 0

Total # of neighbors = 0
Ave neighs/atom = 0.0000000
Neighbor list builds = 865
Dangerous builds = 0
fix myat1 all ave/time 10 10 100 v_xave v_xdes file position.${a}.dat
fix myat1 all ave/time 10 10 100 v_xave v_xdes file position.47.dat
run 200000
Per MPI rank memory allocation (min/avg/max) = 4.571 | 4.571 | 4.571 Mbytes
Step Temp E_pair E_mol TotEng Press 
18600000    95.023951            0            0    1.4162417   0.80924543 
18700000    130.45497            0            0    1.9443075     1.110984 
18800000     181.1211            0            0     2.699438    1.5424682 
Loop time of 4.76369 on 4 procs for 200000 steps with 6 atoms

Performance: 7254.878 ns/day, 0.003 hours/ns, 41984.248 timesteps/s
99.8% CPU use with 4 MPI tasks x 1 OpenMP threads

MPI task timing breakdown:
Section |  min time  |  avg time  |  max time  |%varavg| %total
---------------------------------------------------------------
Pair    | 0.014045   | 0.018364   | 0.024039   |   2.9 |  0.39
Neigh   | 0.0040643  | 0.00443    | 0.0050479  |   0.6 |  0.09
Comm    | 0.49315    | 0.52811    | 0.55905    |   3.3 | 11.09
Output  | 5.1975e-05 | 5.5766e-05 | 6.4867e-05 |   0.0 |  0.00
Modify  | 3.7803     | 3.8211     | 3.88       |   1.9 | 80.21
Other   |            | 0.3917     |            |       |  8.22

Nlocal:        1.50000 ave           2 max           1 min
Histogram: 2 0 0 0 0 0 0 0 0 2
Nghost:        3.50000 ave           4 max           3 min
Histogram: 2 0 0 0 0 0 0 0 0 2
Neighs:         0.00000 ave           0 max           0 min
Histogram: 4 0 0 0 0 0 0 0 0 0

Total # of neighbors = 0
Ave neighs/atom = 0.0000000
Neighbor list builds = 886
Dangerous builds = 0
unfix myat1
next a
jump SELF loop
variable xdes equal ${a}-25
variable xdes equal 48-25
variable xave equal xcm(topull,x)
fix mytth topull spring tether ${k} ${xdes} 0 0 0
fix mytth topull spring tether 1.5 ${xdes} 0 0 0
fix mytth topull spring tether 1.5 23 0 0 0
run 200000
Per MPI rank memory allocation (min/avg/max) = 4.571 | 4.571 | 4.571 Mbytes
Step Temp E_pair E_mol TotEng Press 
18800000     181.1211            0            0     2.699438    1.5424682 
18900000    175.77702            0            0    2.6197895    1.4969568 
19000000    123.41911            0            0    1.8394447     1.051065 
Loop time of 3.1935 on 4 procs for 200000 steps with 6 atoms

Performance: 10821.984 ns/day, 0.002 hours/ns, 62627.224 timesteps/s
99.9% CPU use with 4 MPI tasks x 1 OpenMP threads

MPI task timing breakdown:
Section |  min time  |  avg time  |  max time  |%varavg| %total
---------------------------------------------------------------
Pair    | 0.012799   | 0.014636   | 0.016904   |   1.2 |  0.46
Neigh   | 0.0030845  | 0.0032457  | 0.0033447  |   0.2 |  0.10
Comm    | 0.35554    | 0.39405    | 0.42558    |   4.1 | 12.34
Output  | 9.4377e-05 | 0.00010057 | 0.00011774 |   0.0 |  0.00
Modify  | 2.5032     | 2.5252     | 2.5668     |   1.6 | 79.07
Other   |            | 0.2562     |            |       |  8.02

Nlocal:        1.50000 ave           3 max           0 min
Histogram: 1 0 0 1 0 0 1 0 0 1
Nghost:        2.25000 ave           3 max           2 min
Histogram: 3 0 0 0 0 0 0 0 0 1
Neighs:         0.00000 ave           0 max           0 min
Histogram: 4 0 0 0 0 0 0 0 0 0

Total # of neighbors = 0
Ave neighs/atom = 0.0000000
Neighbor list builds = 890
Dangerous builds = 0
fix myat1 all ave/time 10 10 100 v_xave v_xdes file position.${a}.dat
fix myat1 all ave/time 10 10 100 v_xave v_xdes file position.48.dat
run 200000
Per MPI rank memory allocation (min/avg/max) = 4.571 | 4.571 | 4.571 Mbytes
Step Temp E_pair E_mol TotEng Press 
19000000    123.41911            0            0    1.8394447     1.051065 
19100000     95.46015            0            0    1.4227429    0.8129602 
19200000    98.323277            0            0    1.4654151   0.83734324 
Loop time of 4.13055 on 4 procs for 200000 steps with 6 atoms

Performance: 8366.923 ns/day, 0.003 hours/ns, 48419.695 timesteps/s
99.9% CPU use with 4 MPI tasks x 1 OpenMP threads

MPI task timing breakdown:
Section |  min time  |  avg time  |  max time  |%varavg| %total
---------------------------------------------------------------
Pair    | 0.01339    | 0.016387   | 0.019866   |   1.8 |  0.40
Neigh   | 0.0035273  | 0.0037707  | 0.0039118  |   0.2 |  0.09
Comm    | 0.44623    | 0.45921    | 0.47029    |   1.5 | 11.12
Output  | 4.9566e-05 | 5.2454e-05 | 5.9577e-05 |   0.0 |  0.00
Modify  | 3.2969     | 3.3151     | 3.3365     |   0.8 | 80.26
Other   |            | 0.336      |            |       |  8.14

Nlocal:        1.50000 ave           2 max           1 min
Histogram: 2 0 0 0 0 0 0 0 0 2
Nghost:        2.25000 ave           4 max           0 min
Histogram: 1 0 0 0 0 1 0 1 0 1
Neighs:         0.00000 ave           0 max           0 min
Histogram: 4 0 0 0 0 0 0 0 0 0

Total # of neighbors = 0
Ave neighs/atom = 0.0000000
Neighbor list builds = 871
Dangerous builds = 0
unfix myat1
next a
jump SELF loop
variable xdes equal ${a}-25
variable xdes equal 49-25
variable xave equal xcm(topull,x)
fix mytth topull spring tether ${k} ${xdes} 0 0 0
fix mytth topull spring tether 1.5 ${xdes} 0 0 0
fix mytth topull spring tether 1.5 24 0 0 0
run 200000
Per MPI rank memory allocation (min/avg/max) = 4.571 | 4.571 | 4.571 Mbytes
Step Temp E_pair E_mol TotEng Press 
19200000    98.323277            0            0    1.4654151   0.83734324 
19300000     193.4571            0            0    2.8832943    1.6475243 
19400000    159.83185            0            0    2.3821419    1.3611641 
Loop time of 2.43877 on 4 procs for 200000 steps with 6 atoms

Performance: 14171.089 ns/day, 0.002 hours/ns, 82008.619 timesteps/s
99.9% CPU use with 4 MPI tasks x 1 OpenMP threads

MPI task timing breakdown:
Section |  min time  |  avg time  |  max time  |%varavg| %total
---------------------------------------------------------------
Pair    | 0.012075   | 0.012948   | 0.013941   |   0.6 |  0.53
Neigh   | 0.0027483  | 0.0028131  | 0.0029121  |   0.1 |  0.12
Comm    | 0.28131    | 0.32293    | 0.35572    |   5.1 | 13.24
Output  | 3.1991e-05 | 3.8119e-05 | 5.5538e-05 |   0.0 |  0.00
Modify  | 1.8498     | 1.8935     | 1.9227     |   2.2 | 77.64
Other   |            | 0.2065     |            |       |  8.47

Nlocal:        1.50000 ave           2 max           1 min
Histogram: 2 0 0 0 0 0 0 0 0 2
Nghost:        2.25000 ave           3 max           1 min
Histogram: 1 0 0 0 0 1 0 0 0 2
Neighs:         0.00000 ave           0 max           0 min
Histogram: 4 0 0 0 0 0 0 0 0 0

Total # of neighbors = 0
Ave neighs/atom = 0.0000000
Neighbor list builds = 882
Dangerous builds = 0
fix myat1 all ave/time 10 10 100 v_xave v_xdes file position.${a}.dat
fix myat1 all ave/time 10 10 100 v_xave v_xdes file position.49.dat
run 200000
Per MPI rank memory allocation (min/avg/max) = 4.571 | 4.571 | 4.571 Mbytes
Step Temp E_pair E_mol TotEng Press 
19400000    159.83185            0            0    2.3821419    1.3611641 
19500000    125.19932            0            0    1.8659769    1.0662257 
19600000    116.35567            0            0    1.7341708    0.9909112 
Loop time of 4.12847 on 4 procs for 200000 steps with 6 atoms

Performance: 8371.142 ns/day, 0.003 hours/ns, 48444.111 timesteps/s
99.9% CPU use with 4 MPI tasks x 1 OpenMP threads

MPI task timing breakdown:
Section |  min time  |  avg time  |  max time  |%varavg| %total
---------------------------------------------------------------
Pair    | 0.014514   | 0.016843   | 0.018396   |   1.2 |  0.41
Neigh   | 0.0037878  | 0.003994   | 0.0042615  |   0.3 |  0.10
Comm    | 0.43299    | 0.45228    | 0.47125    |   2.2 | 10.96
Output  | 4.9613e-05 | 5.2223e-05 | 5.7305e-05 |   0.0 |  0.00
Modify  | 3.2976     | 3.3161     | 3.3256     |   0.6 | 80.32
Other   |            | 0.3392     |            |       |  8.22

Nlocal:        1.50000 ave           3 max           0 min
Histogram: 1 0 0 1 0 0 1 0 0 1
Nghost:        5.25000 ave           7 max           4 min
Histogram: 1 0 0 2 0 0 0 0 0 1
Neighs:         0.00000 ave           0 max           0 min
Histogram: 4 0 0 0 0 0 0 0 0 0

Total # of neighbors = 0
Ave neighs/atom = 0.0000000
Neighbor list builds = 879
Dangerous builds = 0
unfix myat1
next a
jump SELF loop
variable xdes equal ${a}-25
variable xdes equal 50-25
variable xave equal xcm(topull,x)
fix mytth topull spring tether ${k} ${xdes} 0 0 0
fix mytth topull spring tether 1.5 ${xdes} 0 0 0
fix mytth topull spring tether 1.5 25 0 0 0
run 200000
Per MPI rank memory allocation (min/avg/max) = 4.571 | 4.571 | 4.571 Mbytes
Step Temp E_pair E_mol TotEng Press 
19600000    116.35567            0            0    1.7341708    0.9909112 
19700000    127.34035            0            0     1.897887    1.0844592 
19800000    186.77494            0            0    2.7837031    1.5906176 
Loop time of 4.0339 on 4 procs for 200000 steps with 6 atoms

Performance: 8567.395 ns/day, 0.003 hours/ns, 49579.830 timesteps/s
99.9% CPU use with 4 MPI tasks x 1 OpenMP threads

MPI task timing breakdown:
Section |  min time  |  avg time  |  max time  |%varavg| %total
---------------------------------------------------------------
Pair    | 0.015564   | 0.01682    | 0.019886   |   1.4 |  0.42
Neigh   | 0.0042425  | 0.0043256  | 0.0043733  |   0.1 |  0.11
Comm    | 0.52643    | 0.54835    | 0.56415    |   2.0 | 13.59
Output  | 3.6821e-05 | 4.3265e-05 | 6.0313e-05 |   0.0 |  0.00
Modify  | 3.1439     | 3.1599     | 3.1842     |   0.9 | 78.33
Other   |            | 0.3044     |            |       |  7.55

Nlocal:        1.50000 ave           4 max           0 min
Histogram: 1 0 2 0 0 0 0 0 0 1
Nghost:        5.00000 ave           6 max           4 min
Histogram: 2 0 0 0 0 0 0 0 0 2
Neighs:         0.00000 ave           0 max           0 min
Histogram: 4 0 0 0 0 0 0 0 0 0

Total # of neighbors = 0
Ave neighs/atom = 0.0000000
Neighbor list builds = 893
Dangerous builds = 0
fix myat1 all ave/time 10 10 100 v_xave v_xdes file position.${a}.dat
fix myat1 all ave/time 10 10 100 v_xave v_xdes file position.50.dat
run 200000
Per MPI rank memory allocation (min/avg/max) = 4.571 | 4.571 | 4.571 Mbytes
Step Temp E_pair E_mol TotEng Press 
19800000    186.77494            0            0    2.7837031    1.5906176 
19900000    122.19003            0            0    1.8211264    1.0405979 
20000000    256.24938            0            0    3.8191537    2.1822776 
Loop time of 3.8266 on 4 procs for 200000 steps with 6 atoms

Performance: 9031.505 ns/day, 0.003 hours/ns, 52265.655 timesteps/s
99.9% CPU use with 4 MPI tasks x 1 OpenMP threads

MPI task timing breakdown:
Section |  min time  |  avg time  |  max time  |%varavg| %total
---------------------------------------------------------------
Pair    | 0.013294   | 0.015847   | 0.019629   |   2.1 |  0.41
Neigh   | 0.003057   | 0.0033544  | 0.0037275  |   0.5 |  0.09
Comm    | 0.4679     | 0.49805    | 0.52674    |   3.4 | 13.02
Output  | 8.0727e-05 | 8.2037e-05 | 8.3722e-05 |   0.0 |  0.00
Modify  | 2.9701     | 2.9985     | 3.0369     |   1.5 | 78.36
Other   |            | 0.3108     |            |       |  8.12

Nlocal:        1.50000 ave           2 max           1 min
Histogram: 2 0 0 0 0 0 0 0 0 2
Nghost:        2.00000 ave           3 max           1 min
Histogram: 1 0 0 0 0 2 0 0 0 1
Neighs:         0.00000 ave           0 max           0 min
Histogram: 4 0 0 0 0 0 0 0 0 0

Total # of neighbors = 0
Ave neighs/atom = 0.0000000
Neighbor list builds = 872
Dangerous builds = 0
unfix myat1
next a
jump SELF loop
Total wall time: 0:06:40
