ITEM: TIMESTEP
25000
ITEM: NUMBER OF ATOMS
576
ITEM: BOX BOUNDS pp pp pp
-1.1578087432875199e+01 3.2163665144472517e+01
2.4397297797306008e+00 1.8145847931862118e+01
1.5469184683713184e+00 1.9038659243222867e+01
ITEM: ATOMS id type q x y z
315 2 -0.450846 -8.70778 6.11966 4.56459
290 1 1.39316 -10.3096 5.92133 4.89952
402 2 -0.495116 -8.38735 4.5365 8.3258
488 1 1.25788 -10.1961 5.40996 7.93876
46 1 1.07146 -6.776 3.66742 8.98944
124 2 -0.736327 -10.061 5.29319 6.35713
210 1 1.24758 -9.7902 8.29555 9.20269
419 2 -0.773703 -9.82991 6.84758 8.52563
306 2 -0.504694 -8.37898 9.10417 8.0719
536 2 -0.603482 -11.3447 4.64811 4.20324
380 1 1.30051 -6.79818 9.95626 7.37831
432 2 -0.78522 -6.79607 7.30526 1.77259
404 2 -0.619092 -11.3943 7.37572 4.72058
231 2 -0.639141 -6.05399 9.74625 5.85766
366 2 -0.758878 -4.87106 4.43824 5.18381
377 2 -0.766734 -5.63358 9.13104 3.21411
75 1 1.32444 -4.4525 5.95264 4.78008
118 1 1.48475 -4.72567 9.75269 4.42917
364 2 -0.576674 -5.13006 9.64499 8.22659
60 2 -0.732646 -5.70811 3.08111 3.10655
352 1 1.40679 -4.70811 2.88641 4.51662
300 1 1.4462 -5.61098 3.84504 1.63861
199 1 1.38834 -6.05717 8.73663 1.68687
470 1 1.37626 -2.44498 7.92739 5.81763
474 2 -0.774676 -3.30063 8.98605 4.85297
175 2 -0.738449 -3.691 6.80146 5.93692
360 2 -0.846852 -3.42214 6.09842 3.58301
220 2 -0.479137 -3.07991 4.27534 8.68234
408 1 1.46882 -2.48875 5.47661 2.44266
38 1 1.34781 -3.26212 8.95622 8.68166
314 2 -0.75058 -2.46399 8.51266 7.3272
401 2 -0.7204 -3.54886 7.65677 9.66618
201 1 1.40672 -1.45878 4.12168 8.44735
168 2 -0.681672 -1.90533 9.66352 9.52396
123 2 -0.66957 -3.878 4.54364 1.70995
484 2 -0.733936 -1.358 3.25485 7.03493
249 2 -0.706578 -3.08242 2.50614 3.97822
40 2 -0.822331 -0.873614 3.22288 9.62187
50 2 -0.732643 -1.65958 6.68352 1.56294
239 2 -0.481457 -1.17015 4.77714 3.07919
228 1 1.27018 2.33858 9.69824 1.93485
553 2 -0.772022 2.12141 6.57985 6.88375
498 1 1.34565 1.63802 7.22221 5.48406
324 2 -0.618601 0.631045 8.70071 2.07063
476 2 -0.593114 0.238611 5.1747 8.38754
411 2 -0.530477 -0.393778 7.48861 5.53029
278 2 -0.801518 2.17607 7.01816 9.41246
236 1 1.47585 2.05295 5.85546 8.32471
256 2 -0.55174 2.69493 6.09529 4.44586
180 2 -0.759047 2.41549 8.68495 5.32133
163 1 1.45192 2.72054 10.2767 4.93249
173 1 1.00663 4.19413 4.93319 3.82216
422 2 -0.703762 3.54315 5.07008 8.65345
27 2 -0.739031 4.0777 2.69521 9.60798
529 2 -0.521513 4.33536 9.46361 1.56058
550 1 1.49456 4.70389 4.22884 9.77049
420 2 -0.466715 4.7862 8.63009 9.66233
311 2 -0.732908 9.28362 8.49041 5.10148
464 2 -0.570014 8.574 5.99664 1.63712
289 1 1.33263 9.44184 8.92972 3.49883
57 1 1.26454 9.53156 8.05461 6.69613
558 2 -0.466322 6.35244 4.22296 9.70771
131 2 -0.572661 7.93244 4.11394 5.99239
111 1 0.959215 6.4314 9.5868 8.78154
273 1 1.38093 9.6105 4.94852 6.6286
107 2 -0.740526 9.17909 6.48943 6.86562
227 1 1.16456 6.88772 2.96951 5.29248
493 2 -0.561657 5.25795 3.91607 4.64976
373 2 -0.633655 5.23486 5.21504 2.54622
35 2 -0.583612 7.73024 9.05703 2.59676
501 2 -0.477977 7.93085 8.80372 7.60265
13 2 -0.765869 9.78748 4.23831 8.07942
575 2 -0.46426 -7.62186 14.3161 4.16996
3 1 1.15707 -8.10597 12.8776 7.48308
250 2 -0.469928 -6.44329 13.563 8.25428
29 1 1.18919 -9.51031 13.9464 4.78721
140 2 -0.678618 -9.0514 13.6521 6.35265
386 2 -0.727246 -7.61604 11.365 7.24059
94 2 -0.509906 -7.12264 15.2299 2.16152
221 2 -0.601557 -10.4202 12.6509 4.04827
224 2 -0.764256 -10.4185 10.6107 2.27225
86 2 -0.52721 -11.0695 15.1633 4.80568
274 2 -0.704787 -4.93711 15.437 7.5906
299 1 1.42876 -4.64633 17.0334 7.30951
307 1 1.00169 -5.7846 14.7992 3.29414
190 1 1.09881 -4.38859 14.2279 8.56508
189 2 -0.727163 -5.14288 17.4802 5.77985
212 2 -0.608342 -5.77601 18.1221 8.35028
350 2 -0.573297 -4.60006 13.5226 3.01319
144 2 -0.754666 -4.14444 11.2038 3.91836
481 2 -0.646561 -3.687 14.9 9.98281
391 2 -0.424353 -2.4269 13.6174 8.19207
156 1 1.33753 -3.24444 12.2627 3.02591
554 2 -0.734132 -2.92038 17.0295 7.35817
53 2 -0.477593 -3.88491 15.8352 3.54646
208 1 1.17971 -2.13274 16.8751 3.78913
70 2 -0.529483 -1.40366 12.3954 3.85255
523 1 1.3935 -1.33607 17.326 6.77547
106 2 -0.726529 -1.3806 16.7419 5.24158
499 2 -0.477786 3.7691 16.7695 1.87066
211 2 -0.726799 -0.434988 12.8514 6.29332
442 1 1.17108 -0.059405 13.2347 7.82293
448 2 -0.433036 -0.263652 16.932 2.69641
154 1 1.16507 1.66165 16.9408 1.69345
226 1 1.34184 1.86663 15.9252 8.04369
414 2 -0.652725 1.71994 13.5025 4.71978
166 2 -0.705386 0.828947 14.6033 8.0599
71 2 -0.717294 2.59508 16.1751 9.50822
365 2 -0.617849 0.514034 16.8769 7.48067
438 2 -0.757626 1.32612 11.1275 5.26373
14 2 -0.50247 1.66176 12.2734 8.25058
506 1 1.35839 0.38029 12.4554 4.9416
439 2 -0.767895 2.77465 10.358 3.33275
449 2 -0.775046 3.37022 13.9292 2.63774
335 1 1.37227 3.58727 14.054 4.28946
410 2 -0.740619 4.39706 12.8052 7.33708
26 2 -0.713931 4.03896 12.5772 10.001
176 2 -0.589039 3.60744 15.9121 7.14277
65 1 1.25181 3.65443 11.9649 8.53652
413 2 -0.735465 4.36322 15.4708 4.83316
526 2 -0.61431 4.47233 10.9506 5.58294
496 1 1.21739 9.98238 10.9806 9.7197
453 1 1.27272 5.38036 12.3662 6.08953
431 2 -0.546522 7.25356 13.0513 6.61315
186 2 -0.511571 8.80172 18.0511 4.77387
336 1 1.29709 5.16227 16.0047 6.20278
421 2 -0.661985 5.88181 17.5159 6.02877
11 1 1.17393 8.37091 14.4317 7.23214
460 1 1.33708 9.66597 13.9284 2.17153
517 2 -0.588625 5.00997 10.6374 8.45521
277 2 -0.535828 8.15258 10.4107 9.33507
73 1 0.926456 5.87814 15.9712 1.66596
252 2 -0.563984 6.93479 15.3154 6.74382
337 2 -0.728186 4.89487 13.1391 4.73269
34 2 -0.738338 8.53195 14.3832 8.84107
540 2 -0.406775 7.76034 14.8397 2.15131
269 2 -0.755866 -6.95464 7.14341 14.7204
287 2 -0.784229 -7.06819 4.54351 15.1499
83 1 1.58382 -6.4017 5.95353 15.7253
101 1 1.24926 -7.94719 7.55846 11.6969
288 2 -0.84691 -7.35104 6.3372 17.0188
285 2 -0.694098 -8.08885 8.56476 12.9711
321 2 -0.74643 -10.0865 4.15626 11.9152
569 1 1.2305 -7.84998 8.50776 14.5734
328 2 -0.553324 -9.59736 6.53831 11.925
41 2 -0.476426 -9.82036 8.62297 15.2821
264 1 1.41701 -8.78327 3.10279 11.7541
524 1 1.45088 -7.80736 6.25523 18.5655
281 1 1.4906 -7.91063 3.16188 14.8495
369 2 -0.480046 -6.24989 9.59052 14.8275
98 2 -0.541693 -7.76964 9.67306 18.5693
322 2 -0.752653 -7.98073 2.99756 13.2031
521 2 -0.632648 -7.38653 3.44996 10.5175
100 1 1.19637 -11.1807 5.41624 12.1497
375 2 -0.742736 -7.01371 4.81823 18.9719
455 2 -0.617693 -9.79302 3.15621 15.3226
187 2 -0.575114 -9.75704 6.71529 18.8018
392 2 -0.689278 -8.6765 8.30769 10.4291
338 2 -0.696617 -11.3645 8.88363 17.604
64 1 0.976357 -11.5159 7.60036 18.8523
195 2 -0.418227 -5.93519 7.42374 11.5315
202 2 -0.78555 -5.68789 2.62156 18.0244
95 2 -0.515518 -4.76296 5.8993 15.865
345 1 1.19179 -3.22698 7.413 11.2654
230 2 -0.542788 -1.95026 6.13635 11.62
397 1 1.32162 -0.76873 5.35234 15.4443
152 2 -0.697677 -1.31191 5.26206 13.9251
563 2 -0.73419 -2.13151 8.53414 11.7133
151 2 -0.4838 -4.47654 8.54711 18.7194
145 1 1.15668 -0.73212 8.05972 18.7008
463 2 -0.734341 -0.65317 3.61975 12.1321
406 1 1.31988 -0.936357 9.34616 10.8863
409 2 -0.667938 -0.0385483 4.04078 16.1004
516 1 1.24363 -0.487186 5.19817 12.4933
309 1 1.44494 -0.462884 2.50544 10.9763
486 2 -0.501302 1.09636 8.83196 10.698
139 2 -0.573528 1.54224 5.47051 12.4866
512 2 -0.778551 0.269274 6.56365 15.5648
291 1 1.37771 1.38821 2.80962 16.3701
133 2 -0.771446 1.66958 8.71399 15.0706
388 1 1.35945 1.29958 7.64045 16.2454
457 2 -0.751038 0.0995097 8.16796 17.3028
415 1 1.44157 2.16734 10.237 14.7724
206 2 -0.642502 3.11472 3.16154 15.8643
248 2 -0.593172 3.29596 7.2643 16.5777
318 1 1.29493 3.5436 5.77825 12.2467
559 1 1.25032 2.98616 8.03721 10.3402
88 2 -0.802749 4.19332 4.70428 11.2337
367 2 -0.746247 3.54042 7.29269 11.6753
44 2 -0.441309 3.92231 10.2919 14.1598
359 2 -0.770925 5.73961 5.81339 17.7155
399 1 1.39694 6.65072 5.48467 14.5285
183 1 1.3896 5.35685 7.10723 16.8203
243 2 -0.737014 6.20015 8.28366 17.6025
245 1 1.36267 9.9418 8.96073 11.9686
545 2 -0.798175 7.31226 3.86218 18.4293
447 2 -0.563874 5.17446 5.6752 13.2902
215 2 -0.767942 6.2101 4.13865 15.3378
266 2 -0.713632 6.32712 6.78609 15.4891
30 1 1.32816 5.09543 2.92075 15.4037
21 1 1.37427 6.76923 5.2886 18.8621
24 2 -0.540483 8.04903 9.50129 12.4265
254 1 1.21568 6.37222 9.3733 18.7982
9 2 -0.456849 8.27091 5.34979 14.2691
363 1 1.14545 -9.69215 10.3697 18.3481
544 2 -0.458661 -6.32852 15.6902 13.8825
66 1 1.30597 -7.19459 12.5378 12.9294
153 2 -0.670931 -7.56639 16.3047 17.5158
115 2 -0.727049 -10.2447 11.6232 17.3952
466 2 -0.487867 -9.25736 12.8782 12.6076
462 1 1.45135 -6.15004 17.1405 16.9874
573 2 -0.453873 -6.85167 11.5308 11.725
398 1 1.31692 -11.1675 13.0219 17.4252
547 2 -0.650266 -6.23675 11.8971 14.1807
340 2 -0.648591 -9.76838 17.4723 11.3071
433 1 1.47367 -11.3357 16.3397 10.9103
22 2 -0.760734 -10.9053 14.8097 11.2937
508 2 -0.594696 -9.77313 14.2553 18.0287
317 1 1.30583 -11.2308 13.4983 12.2111
489 1 1.13692 -8.77303 15.6185 18.5371
90 2 -0.717291 -6.8408 17.8566 15.6646
576 2 -0.510024 -10.5377 16.6022 18.7947
389 1 1.47775 -5.03375 14.8302 13.4249
105 2 -0.706842 -6.07314 13.7273 12.64
263 1 1.09632 -4.82958 10.9993 14.6558
393 2 -0.565877 -4.47175 16.1754 16.6432
351 2 -0.583671 -3.99842 11.443 16.1431
428 2 -0.746299 -4.02289 14.4897 14.7283
459 2 -0.726658 -3.84709 15.557 12.4162
135 2 -0.754492 -2.93464 13.8276 17.077
138 1 1.2769 -3.08684 15.0257 15.9878
19 1 1.33622 -2.6862 12.2442 17.3228
407 1 1.41641 -2.60577 15.523 11.2838
427 2 -0.512576 -2.83668 11.1235 13.8634
435 1 1.29583 -0.889794 11.3404 13.2494
141 2 -0.64873 -1.12987 14.7162 11.6709
150 2 -0.673775 -1.78727 16.9841 11.0399
500 2 -0.725582 -3.04311 11.8785 18.9138
333 2 -0.623472 -0.81654 11.9034 17.1557
7 2 -0.726541 -0.828771 10.7624 11.7244
454 2 -0.503328 -1.08788 15.3856 15.6721
513 2 -0.767872 -0.416317 12.9044 13.3292
329 2 -0.745061 1.42571 17.9937 17.9343
42 2 -0.712009 0.820116 17.3663 15.3622
368 2 -0.800875 2.08149 11.0704 16.1614
261 2 -0.648743 0.74674 10.7801 13.9367
305 2 -0.777893 1.5309 10.8458 18.6337
326 1 1.4293 2.83516 14.2451 18.6081
87 2 -0.733382 0.901207 15.2952 13.656
225 2 -0.774998 2.01711 13.1313 17.7059
129 1 1.47306 1.18351 11.7472 17.3533
219 1 1.21707 0.912895 15.753 15.2185
113 2 -0.463558 1.99623 13.6685 12.1355
207 2 -0.619336 1.47551 17.8786 10.918
361 1 1.40287 0.474796 14.0849 12.641
205 2 -0.752867 1.68792 15.4071 18.6688
134 2 -0.511566 2.94746 15.6986 15.6738
56 1 1.30889 3.19 17.3476 10.4961
247 2 -0.672896 4.66554 14.9792 17.7566
172 1 1.28081 10.1204 17.3687 13.4804
99 2 -0.768284 9.16296 12.8704 18.5569
293 2 -0.569935 6.46602 15.3114 15.7198
343 1 1.42256 7.48932 18.1353 17.7829
571 2 -0.728522 7.03998 15.7654 13.3259
258 2 -0.70161 9.4354 16.3263 14.5662
121 2 -0.768109 5.4426 17.9013 13.98
437 2 -0.709125 7.01352 17.1179 18.9396
348 2 -0.756028 9.5868 12.4187 10.31
255 1 1.43606 9.22275 11.4452 17.8112
562 2 -0.746131 5.74234 17.6408 16.5791
416 1 1.29289 8.81499 13.8123 10.3205
518 2 -0.755165 8.9691 11.7239 16.2577
541 1 1.16754 5.17765 12.834 11.1691
355 2 -0.489941 4.8692 17.1119 11.6438
480 1 1.23289 6.46482 17.2486 12.8881
560 1 1.0613 4.88867 15.7684 16.3322
23 2 -0.578696 7.89491 11.4458 13.9027
185 2 -0.696666 8.89927 13.7759 14.5106
253 1 1.28925 9.44559 12.2157 14.8162
114 2 -0.582013 8.3895 17.7407 12.8515
341 2 -0.694298 5.56718 11.5891 12.1635
376 2 -0.558986 6.90325 13.535 10.8201
434 1 1.31464 8.07465 15.2977 14.5505
478 1 1.11814 6.63958 10.6848 13.0997
193 2 -0.574594 7.51195 10.538 18.2342
445 2 -0.443628 9.07777 17.9486 17.5218
570 1 1.36313 13.8111 5.53273 2.51556
91 1 1.16309 13.2913 7.89498 7.92711
162 2 -0.710706 13.6302 5.22368 4.09785
370 1 1.20093 12.9904 4.15789 5.14401
45 2 -0.720028 13.9896 9.15476 8.6786
171 2 -0.464012 15.0664 3.83965 5.70006
382 2 -0.563419 11.4663 8.14841 7.17275
112 2 -0.763676 12.6843 6.88741 9.02465
320 2 -0.729785 12.0141 3.08508 4.36263
43 2 -0.70247 14.5096 7.03027 2.32749
284 2 -0.64598 11.9197 5.73706 2.08061
5 2 -0.613287 11.2954 4.82009 5.90806
446 2 -0.781402 10.3137 7.82108 2.69476
418 2 -0.477208 15.1938 2.54863 10.129
492 2 -0.667147 15.1943 4.55106 1.77523
216 2 -0.702078 11.7409 2.92071 9.68539
497 1 1.38743 10.473 6.5791 1.65919
381 1 1.30693 10.6036 4.12262 9.47268
170 2 -0.415952 15.7743 7.16744 7.41227
479 1 1.19747 17.179 3.91599 5.94471
296 2 -0.687991 17.3076 5.52924 5.83503
405 2 -0.501633 19.1872 7.53513 6.2098
136 1 1.25322 17.651 6.63072 6.97752
357 2 -0.701102 18.6678 5.85544 8.04176
295 2 -0.674572 20.0108 7.88814 3.72847
59 2 -0.701447 20.8901 4.04575 3.16858
487 1 1.30155 18.9216 4.23886 8.42499
104 2 -0.734512 17.8786 3.45921 7.37419
55 1 1.20907 20.8958 7.87326 2.35899
155 1 1.23134 20.7015 8.13356 5.20444
49 2 -0.685061 21.2237 6.34324 1.93599
468 2 -0.507912 18.8119 3.28568 5.0294
84 1 1.16373 20.5036 2.75937 4.08773
549 2 -0.735886 20.658 9.79709 5.2268
232 2 -0.684519 18.0097 4.19491 9.82517
531 2 -0.606803 20.8165 3.48789 8.52341
241 2 -0.796834 17.172 2.47634 1.56283
417 1 1.2941 23.87 9.65649 3.00861
237 1 1.41171 22.1781 4.91198 2.54781
509 2 -0.554231 22.5967 7.37257 4.9366
530 2 -0.693823 22.2536 8.81229 2.5141
158 2 -0.792082 23.2371 5.27086 3.74398
146 1 1.19588 24.308 6.35082 4.28333
349 2 -0.654992 23.3232 3.98194 1.57066
214 2 -0.612115 25.5422 7.67825 9.09995
48 1 1.48728 25.9601 6.22659 1.63073
268 2 -0.529316 25.9512 5.55183 5.00906
331 2 -0.426566 24.823 9.39138 1.75475
574 2 -0.512084 25.3771 9.46859 4.28746
16 2 -0.645237 26.108 3.17925 5.24493
242 2 -0.74434 25.2404 6.8352 3.01495
179 2 -0.780956 26.0403 4.58118 1.82048
424 1 1.38375 25.058 3.28651 1.66914
198 2 -0.673789 31.0784 8.00065 2.52269
126 2 -0.554231 29.175 3.91378 4.39202
302 2 -0.735686 28.3342 9.04122 8.90693
374 2 -0.491027 29.026 8.97582 4.72395
4 2 -0.630763 28.3283 4.61615 6.70981
36 2 -0.765795 28.805 4.70836 9.34509
137 1 1.29024 29.2962 5.40712 7.9801
120 1 1.36484 31.0013 3.38399 3.90146
260 2 -0.758213 28.324 6.77187 7.96777
61 2 -0.537282 31.3928 5.37164 7.98346
436 2 -0.727552 26.7943 8.70212 6.72713
159 2 -0.459257 31.8042 8.59166 9.5513
354 1 1.25782 27.093 9.53749 5.31649
425 1 1.17293 27.3992 4.32304 5.28267
110 1 1.38947 27.225 8.0193 8.19458
542 1 1.25821 29.5765 8.93546 10.0175
332 2 -0.733402 31.1828 2.93269 2.34057
507 1 1.2311 30.987 8.58433 4.06319
330 2 -0.714405 31.7132 10.051 4.22099
67 2 -0.505546 14.3183 15.5599 6.19157
384 2 -0.555681 13.4598 11.9285 4.6167
533 1 1.1613 15.0324 12.0337 5.76354
12 1 1.11499 12.3774 16.0845 6.86781
58 2 -0.675418 13.0899 17.0494 8.04854
200 1 1.39031 12.2299 15.8903 2.34377
167 2 -0.451117 10.4294 15.0423 7.01328
327 1 1.23806 11.8398 11.6765 3.45036
372 1 1.29347 13.2806 17.6195 9.5955
80 2 -0.604575 14.1211 15.2988 2.52632
441 2 -0.726289 12.7563 11.5633 2.10024
303 2 -0.712971 14.6164 11.1685 7.08193
456 2 -0.724433 11.3684 17.135 6.11697
426 1 1.21274 14.0582 10.7682 8.58294
403 2 -0.762853 11.3525 16.4788 3.63489
527 2 -0.508017 12.0039 11.0174 9.02614
471 1 1.36962 10.8373 17.6566 4.67656
477 2 -0.646437 10.6808 10.3359 3.60553
482 2 -0.687661 10.9726 14.8993 1.73624
491 2 -0.689919 10.619 12.9326 3.24057
191 1 1.18672 16.2397 14.882 5.79008
304 2 -0.686959 15.897 13.3522 6.24148
238 2 -0.737132 16.3973 14.7813 4.16145
235 1 1.35351 16.0548 14.869 2.55958
103 2 -0.517905 15.7782 11.127 9.54312
6 2 -0.686665 16.3684 13.4822 1.65899
400 2 -0.759993 17.369 15.7928 2.01026
72 2 -0.479938 18.2436 15.2621 6.49471
451 1 1.49429 20.3596 11.4351 5.16522
423 2 -0.488692 18.7332 11.6165 5.28433
412 2 -0.765848 19.8206 14.8087 8.77423
387 2 -0.663901 19.6065 17.4158 3.11742
2 1 1.28986 20.2329 15.3935 7.31338
532 1 1.40856 20.3613 13.613 9.75164
157 2 -0.772647 21.1897 12.0174 6.45841
561 1 1.48756 18.4388 17.1107 1.807
265 2 -0.647617 18.7417 12.5396 10.082
188 2 -0.631581 21.2547 12.1699 3.8525
257 2 -0.783519 24.9921 18.0843 2.96513
342 2 -0.479868 22.6472 18.1005 4.50774
525 1 1.34665 22.1056 17.798 8.71548
385 2 -0.700203 21.8806 17.3839 10.2702
564 2 -0.771413 23.5027 11.1922 2.86687
169 2 -0.473303 24.4789 13.5376 2.12285
282 1 1.41313 22.203 13.0738 7.22992
390 1 1.3004 24.7974 17.9442 4.53309
495 2 -0.721109 21.5023 14.4854 6.7032
555 2 -0.697712 21.2988 16.704 7.72969
132 2 -0.705298 21.7178 12.9887 8.85336
461 1 1.313 22.6436 12.4707 2.49482
465 2 -0.433197 24.0518 12.8599 6.89016
69 2 -0.449532 23.7666 17.7644 8.6984
275 2 -0.605969 25.7158 16.5086 4.85007
93 1 1.32858 26.434 14.2978 1.81846
77 2 -0.460787 26.4797 15.5364 8.70618
116 2 -0.756927 31.9091 16.5247 9.33812
494 2 -0.604736 29.1252 15.8241 4.81412
182 1 1.36986 27.1768 15.3999 4.58808
301 2 -0.833786 30.4014 14.5226 8.4812
485 2 -0.709243 26.9813 11.1615 5.65473
165 1 1.45639 30.3182 12.998 7.98946
122 2 -0.780944 26.9443 15.2266 3.02029
192 1 1.2798 31.0341 16.2189 5.15097
443 1 1.27011 27.0315 12.6988 6.25376
203 2 -0.778018 29.5633 12.1875 9.15096
557 2 -0.70322 30.579 11.7208 2.53653
271 1 1.51962 30.6296 16.1032 8.29124
490 2 -0.76032 26.7892 13.9667 5.26421
33 2 -0.724611 28.8756 16.8009 8.44926
92 1 1.27239 27.4624 16.6899 9.22731
347 2 -0.615854 28.6561 12.8882 6.90476
197 2 -0.747726 31.3772 17.7286 4.67383
76 2 -0.764562 31.1167 16.3461 6.76045
430 2 -0.603679 27.8974 13.2792 1.6187
344 1 1.36237 32.1611 11.2679 3.20354
196 2 -0.492162 31.9138 12.6606 7.8328
222 2 -0.725514 14.2697 8.32215 13.2418
475 2 -0.726782 14.2075 7.08674 17.3135
294 2 -0.783835 12.4313 7.45782 15.2111
82 1 1.46465 12.7969 8.59333 14.0919
556 2 -0.604702 14.1977 4.46914 14.0136
469 1 1.05542 12.401 4.3877 14.5636
148 2 -0.683053 12.2684 5.12642 16.0418
181 1 1.25335 15.3466 7.44994 12.2924
259 2 -0.59011 13.7529 6.87509 11.3864
519 2 -0.572867 11.2123 3.119 14.156
246 1 1.41443 12.4787 6.68726 16.6608
429 2 -0.801484 14.8314 2.94024 17.4937
47 1 1.48108 14.9639 7.96496 18.5069
548 2 -0.661394 14.0793 9.40816 18.4698
18 2 -0.780184 13.1016 9.83465 15.0612
164 1 1.37354 11.9948 6.76664 10.4897
483 2 -0.733292 11.1495 7.03994 17.6976
89 2 -0.742198 10.4019 10.1932 11.0561
503 2 -0.774605 11.0914 5.38675 10.3537
177 2 -0.662299 11.1044 8.87979 13.1906
8 2 -0.706959 10.6555 7.73678 11.0382
528 2 -0.738918 16.0599 6.33531 13.2204
568 1 1.33221 16.0479 4.75683 13.5346
147 1 1.42153 16.1814 3.53871 18.2511
54 2 -0.704243 16.556 3.8964 12.21
233 2 -0.490496 17.2444 8.15065 11.8477
244 1 1.13555 17.2467 3.17839 10.8642
319 2 -0.44733 16.6108 8.06159 18.5981
358 2 -0.711592 17.5472 4.09288 17.2188
572 2 -0.646674 17.5482 4.42194 14.6718
308 1 1.24273 18.544 3.96026 15.9321
543 1 1.052 19.0781 8.9725 11.5742
394 2 -0.606469 20.4827 9.41893 12.5066
520 2 -0.734515 19.6595 2.72382 15.8579
17 2 -0.693875 18.6881 10.0738 10.432
117 2 -0.5105 19.2394 2.67319 11.2696
539 2 -0.455172 22.6304 7.97912 10.5076
505 1 1.2104 24.8189 4.77154 11.866
79 2 -0.769921 23.1243 8.18744 16.4759
96 2 -0.755337 24.0749 5.9161 10.9807
323 2 -0.418078 22.9635 3.56872 11.858
379 1 1.45587 23.1597 9.75707 16.0167
356 2 -0.739224 24.7002 6.45463 17.865
74 1 1.54442 23.9005 6.72441 16.4534
279 2 -0.691328 22.4628 9.90395 14.5283
346 2 -0.475052 22.5941 5.76411 16.2959
280 1 1.42707 24.1895 7.4616 10.4927
313 2 -0.738318 25.3843 5.22825 13.3223
204 2 -0.674768 25.2696 6.49456 15.3884
334 1 1.41385 26.6683 8.49473 12.1225
440 2 -0.734009 26.5012 9.9878 12.8086
97 2 -0.462438 24.7578 9.99417 16.1758
37 1 1.35413 26.4747 6.13482 14.1789
149 2 -0.793499 25.1523 8.29409 11.4959
292 2 -0.533915 28.56 5.83262 14.5144
142 2 -0.746809 31.3067 4.69637 15.7702
316 1 1.09845 31.7411 8.66248 16.0342
262 1 1.24756 28.8026 4.60906 10.9464
472 2 -0.756765 31.9708 2.65364 17.317
160 2 -0.698897 31.0569 7.22533 15.6015
229 2 -0.545122 30.6858 5.18934 11.408
267 2 -0.792497 29.1595 3.11256 11.3968
81 2 -0.786473 26.7756 7.49373 13.3867
108 2 -0.502334 29.9614 9.66163 16.0459
538 2 -0.458469 27.5082 6.67189 18.8211
371 1 1.39933 30.638 5.8439 14.7904
310 2 -0.546891 26.7867 4.68992 11.3302
51 2 -0.655813 28.428 8.34329 11.1437
396 2 -0.732708 31.7812 5.73569 13.5702
552 1 1.48245 31.9899 3.19847 15.7967
378 2 -0.491155 10.5188 14.7055 11.0464
130 2 -0.698979 14.6629 16.2768 16.7468
143 2 -0.41553 14.3708 14.9875 12.3892
502 2 -0.698398 11.3893 16.6499 12.6044
20 1 1.21244 13.4185 11.3844 15.2326
52 2 -0.465061 15.3617 11.4699 14.4388
504 2 -0.693056 13.5336 11.569 16.8792
128 1 1.16228 12.2805 15.5725 11.6772
286 2 -0.524051 11.4784 11.9464 14.8675
298 1 1.33887 12.7855 10.7857 18.1552
444 1 1.26933 13.8199 17.376 17.5959
31 2 -0.751233 12.7139 17.078 18.786
68 2 -0.666397 10.9106 10.7915 17.914
473 2 -0.729675 13.0315 16.2482 10.4132
217 1 1.19207 16.4296 14.7237 13.1279
184 2 -0.725816 17.004 13.3502 13.7547
218 1 1.33913 16.2724 15.6417 15.9998
209 1 1.199 17.2481 11.781 13.5396
223 2 -0.715096 16.0228 15.6924 14.3788
537 2 -0.730656 16.3601 14.1119 16.5781
362 1 1.1069 17.123 13.2043 17.6938
240 2 -0.77943 17.0145 11.4241 11.9899
127 1 1.3381 17.5894 11.3363 10.4796
125 2 -0.556728 18.3674 15.1495 12.7458
339 2 -0.736751 18.036 16.339 16.1197
467 2 -0.584326 18.9568 12.5115 17.3988
62 2 -0.491312 19.2715 11.312 13.6559
514 1 1.38742 19.6114 16.8522 16.4091
109 1 1.43834 20.9369 12.2219 17.3037
458 2 -0.766386 19.521 16.9332 18.0405
452 1 1.36617 20.3429 15.2108 12.5592
312 2 -0.700929 20.9657 16.7448 12.5305
450 2 -0.744302 20.7195 14.3184 11.214
174 1 1.19577 21.206 18.0668 11.5795
546 2 -0.629007 21.2263 15.7685 15.9148
565 2 -0.389989 23.8449 11.1372 12.6622
25 2 -0.776207 21.5488 12.5169 18.7743
272 1 1.02528 21.4208 10.5321 13.364
1 1 1.45941 22.1074 14.4296 15.2747
297 2 -0.687179 21.8842 10.8623 16.8752
178 2 -0.71148 21.3233 14.4585 13.7895
510 2 -0.441164 23.8556 14.0254 15.2269
234 2 -0.818533 21.4911 13.2565 16.1982
511 2 -0.585485 26.3784 17.9363 18.1307
515 1 1.26518 25.8182 11.4162 12.4531
283 2 -0.710412 26.1306 12.6566 13.4507
119 1 1.29668 29.389 11.8357 10.7099
102 1 1.38744 30.6242 13.9996 14.8693
28 1 1.18722 26.9172 12.9202 14.8546
85 2 -0.702018 26.7408 15.3914 18.0784
535 2 -0.561319 30.9819 12.6858 11.4318
395 2 -0.776976 28.8834 17.0125 13.3913
15 2 -0.783574 30.7528 18.0694 15.061
161 2 -0.695593 31.8691 13.5001 15.964
63 2 -0.626409 28.6997 13.5199 14.8175
566 2 -0.722211 29.9287 10.3172 10.7749
194 2 -0.744686 31.579 13.8649 13.5195
534 1 1.3207 27.6441 16.7916 17.8083
353 1 1.49152 29.1609 17.2499 11.7558
213 2 -0.722942 28.7558 11.1007 17.9776
325 1 1.34539 29.5738 12.2707 18.7611
32 2 -0.745502 27.8634 16.6737 10.8062
78 2 -0.529704 27.4782 11.7787 11.3423
39 1 1.14561 28.2809 10.644 16.512
251 2 -0.805874 30.373 15.5671 15.1483
276 2 -0.71349 27.1537 11.6578 15.8362
567 2 -0.574464 29.5406 17.0265 18.3582
551 1 1.27622 31.4396 17.5627 18.6207
522 2 -0.750847 30.9158 16.685 11.538
270 2 -0.762871 30.9738 12.9125 18.0639
383 2 -0.665888 28.137 16.9176 16.2156
10 1 1.50531 29.535 16.9339 14.9293
ITEM: TIMESTEP
25100
ITEM: NUMBER OF ATOMS
576
ITEM: BOX BOUNDS pp pp pp
-1.1578087432875199e+01 3.2163665144472517e+01
2.4397297797306008e+00 1.8145847931862118e+01
1.5469184683713184e+00 1.9038659243222867e+01
ITEM: ATOMS id type q x y z
315 2 -0.452121 -8.72201 6.12043 4.55971
290 1 1.39757 -10.3201 5.9204 4.89965
402 2 -0.497393 -8.39587 4.53509 8.32565
488 1 1.25963 -10.2003 5.41011 7.93965
46 1 1.07307 -6.79036 3.66472 8.99048
124 2 -0.737131 -10.0669 5.29399 6.35764
210 1 1.25057 -9.78998 8.29594 9.20305
419 2 -0.774357 -9.83372 6.84772 8.52661
306 2 -0.504152 -8.37698 9.10264 8.0732
536 2 -0.605926 -11.351 4.64746 4.20437
380 1 1.30125 -6.79524 9.95508 7.37858
432 2 -0.787179 -6.79777 7.30589 1.7755
404 2 -0.620877 -11.3998 7.37528 4.72133
231 2 -0.640182 -6.04992 9.747 5.85837
366 2 -0.759904 -4.86654 4.43809 5.18232
377 2 -0.768165 -5.63526 9.13305 3.2169
75 1 1.32689 -4.44545 5.95199 4.78079
118 1 1.48725 -4.72398 9.75309 4.42989
364 2 -0.577343 -5.12816 9.64445 8.22729
60 2 -0.733355 -5.70556 3.0806 3.10602
352 1 1.40827 -4.70552 2.88614 4.51617
300 1 1.44929 -5.61046 3.8449 1.63817
199 1 1.39461 -6.06597 8.73994 1.69092
470 1 1.37868 -2.44319 7.9291 5.81819
474 2 -0.776038 -3.30096 8.98576 4.8535
175 2 -0.739878 -3.68433 6.80017 5.93745
360 2 -0.847861 -3.42126 6.10137 3.58027
220 2 -0.479776 -3.06679 4.28053 8.68175
408 1 1.46999 -2.49161 5.47889 2.43864
38 1 1.35006 -3.26288 8.95628 8.68169
314 2 -0.751779 -2.46453 8.5144 7.32762
401 2 -0.7215 -3.54877 7.65743 9.66847
201 1 1.41038 -1.44972 4.1215 8.44636
168 2 -0.682779 -1.90695 9.66302 9.52369
123 2 -0.670897 -3.88147 4.545 1.70789
484 2 -0.734565 -1.35488 3.2533 7.03426
249 2 -0.707296 -3.08201 2.50494 3.97689
40 2 -0.823326 -0.870491 3.22053 9.62204
50 2 -0.732642 -1.65819 6.68862 1.56263
239 2 -0.482727 -1.17792 4.77592 3.07681
228 1 1.27206 2.34061 9.69833 1.93401
553 2 -0.772854 2.11804 6.58021 6.88332
498 1 1.34572 1.63573 7.22264 5.48356
324 2 -0.623419 0.637509 8.69714 2.07059
476 2 -0.596958 0.242348 5.17493 8.38813
411 2 -0.531598 -0.3944 7.48978 5.53101
278 2 -0.803006 2.17506 7.01857 9.41241
236 1 1.48134 2.05214 5.85583 8.32449
256 2 -0.550995 2.69834 6.09394 4.44657
180 2 -0.759826 2.41183 8.68534 5.32144
163 1 1.45464 2.71712 10.2768 4.93231
173 1 1.00682 4.20134 4.93553 3.82502
422 2 -0.706838 3.53621 5.07041 8.6507
27 2 -0.740606 4.07327 2.69492 9.60863
529 2 -0.52212 4.33635 9.46565 1.56115
550 1 1.49748 4.69613 4.22906 9.77064
420 2 -0.466569 4.78202 8.63088 9.66102
311 2 -0.733368 9.28584 8.49074 5.10128
464 2 -0.5709 8.57661 5.99683 1.63441
289 1 1.33386 9.44261 8.92923 3.49793
57 1 1.26794 9.53233 8.05413 6.6961
558 2 -0.466911 6.34165 4.22501 9.70557
131 2 -0.573417 7.93823 4.11239 5.99304
111 1 0.957802 6.43256 9.58546 8.78197
273 1 1.38241 9.6137 4.9474 6.62954
107 2 -0.741422 9.18219 6.48851 6.86428
227 1 1.16538 6.89325 2.96949 5.29267
493 2 -0.561869 5.26524 3.91792 4.6514
373 2 -0.63464 5.24081 5.21835 2.54876
35 2 -0.583853 7.73328 9.05667 2.59786
501 2 -0.478485 7.93345 8.80307 7.60295
13 2 -0.766401 9.79044 4.23908 8.08173
575 2 -0.464794 -7.62425 14.316 4.16856
3 1 1.15722 -8.09088 12.8798 7.47923
250 2 -0.473235 -6.43147 13.5647 8.2515
29 1 1.18837 -9.51122 13.946 4.78816
140 2 -0.677854 -9.04842 13.6486 6.3534
386 2 -0.727682 -7.61243 11.3633 7.24015
94 2 -0.509376 -7.12582 15.2282 2.16067
221 2 -0.601593 -10.4212 12.6507 4.04809
224 2 -0.765846 -10.4202 10.6097 2.27292
86 2 -0.527376 -11.0717 15.1624 4.80721
274 2 -0.707153 -4.93275 15.4391 7.59093
299 1 1.42986 -4.64189 17.034 7.30917
307 1 1.00012 -5.78637 14.7991 3.29439
190 1 1.10526 -4.38565 14.2302 8.56406
189 2 -0.72794 -5.13916 17.48 5.78055
212 2 -0.606686 -5.77943 18.1282 8.35154
350 2 -0.572193 -4.60071 13.5229 3.01441
144 2 -0.755365 -4.14172 11.2033 3.91809
481 2 -0.647929 -3.68301 14.8997 9.98173
391 2 -0.423806 -2.44174 13.6218 8.19252
156 1 1.33748 -3.24196 12.2624 3.02651
554 2 -0.736327 -2.92044 17.0307 7.35781
53 2 -0.477312 -3.88404 15.8347 3.54558
208 1 1.18088 -2.13265 16.8743 3.78876
70 2 -0.530112 -1.40283 12.3955 3.8533
523 1 1.39599 -1.33669 17.3242 6.77515
106 2 -0.727295 -1.38184 16.7408 5.24135
499 2 -0.478082 3.76753 16.7683 1.8699
211 2 -0.727217 -0.431479 12.8526 6.29372
442 1 1.17239 -0.0435016 13.2332 7.82145
448 2 -0.433388 -0.262973 16.9312 2.69681
154 1 1.16597 1.66227 16.9401 1.69442
226 1 1.34446 1.86675 15.9271 8.04255
414 2 -0.654073 1.72092 13.5019 4.71918
166 2 -0.707979 0.833327 14.6051 8.05909
71 2 -0.717891 2.59379 16.1758 9.50744
365 2 -0.618578 0.511849 16.8765 7.47967
438 2 -0.759275 1.32438 11.1275 5.26224
14 2 -0.505587 1.66809 12.274 8.25061
506 1 1.35965 0.381122 12.456 4.94042
439 2 -0.768591 2.77426 10.3578 3.33266
449 2 -0.776014 3.3699 13.9297 2.63856
335 1 1.37406 3.58638 14.0545 4.29009
410 2 -0.741459 4.39636 12.8065 7.33799
26 2 -0.713949 4.04441 12.5789 10.0032
176 2 -0.589879 3.60588 15.9149 7.14241
65 1 1.25274 3.65679 11.9665 8.5389
413 2 -0.736261 4.36274 15.4709 4.83357
526 2 -0.615155 4.46606 10.9514 5.58341
496 1 1.21848 9.98374 10.9804 9.71896
453 1 1.27402 5.37655 12.3663 6.08936
431 2 -0.546237 7.24724 13.0509 6.61239
186 2 -0.512106 8.80694 18.0507 4.77485
336 1 1.29785 5.16174 16.0045 6.20264
421 2 -0.661371 5.8853 17.5144 6.02681
11 1 1.17373 8.36797 14.4325 7.23151
460 1 1.33889 9.66842 13.929 2.17071
517 2 -0.588943 5.01335 10.6385 8.45701
277 2 -0.536292 8.15644 10.4095 9.33406
73 1 0.926738 5.87596 15.9693 1.66515
252 2 -0.564513 6.93152 15.315 6.74417
337 2 -0.729153 4.89242 13.1392 4.73232
34 2 -0.738665 8.53182 14.3835 8.84018
540 2 -0.406752 7.76415 14.8392 2.14942
269 2 -0.757626 -6.95849 7.14447 14.7204
287 2 -0.78589 -7.0743 4.54314 15.1486
83 1 1.58861 -6.40843 5.95318 15.7242
101 1 1.26204 -7.95514 7.55909 11.6979
288 2 -0.848623 -7.3522 6.33774 17.0201
285 2 -0.696861 -8.09042 8.56636 12.9706
321 2 -0.747865 -10.0889 4.15671 11.9161
569 1 1.23418 -7.85011 8.50978 14.5723
328 2 -0.55662 -9.59746 6.53743 11.9266
41 2 -0.477213 -9.81449 8.62262 15.2804
264 1 1.42067 -8.78842 3.1017 11.7554
524 1 1.45449 -7.80585 6.2552 18.5674
281 1 1.49276 -7.91541 3.161 14.8498
369 2 -0.479892 -6.25149 9.59258 14.8266
98 2 -0.544596 -7.77283 9.67614 18.5714
322 2 -0.753756 -7.98653 2.99548 13.204
521 2 -0.634626 -7.39526 3.4469 10.5197
100 1 1.19808 -11.1824 5.4165 12.1496
375 2 -0.744118 -7.01149 4.81849 18.9727
455 2 -0.619361 -9.79574 3.15655 15.3236
187 2 -0.577003 -9.75216 6.7178 18.8025
392 2 -0.693086 -8.67838 8.30698 10.4291
338 2 -0.700131 -11.3638 8.87633 17.6073
64 1 0.983299 -11.5064 7.60802 18.8506
195 2 -0.419852 -5.9738 7.42235 11.5328
202 2 -0.786069 -5.68917 2.62175 18.0233
95 2 -0.516139 -4.77278 5.90026 15.8661
345 1 1.19754 -3.20584 7.40819 11.2634
230 2 -0.549366 -1.94779 6.13703 11.6186
397 1 1.32445 -0.756476 5.35091 15.4431
152 2 -0.69879 -1.30393 5.26268 13.9257
563 2 -0.738008 -2.12712 8.53723 11.7148
151 2 -0.485036 -4.49476 8.55031 18.7142
145 1 1.16128 -0.715873 8.05717 18.7009
463 2 -0.735181 -0.650121 3.61968 12.1321
406 1 1.32136 -0.935191 9.34675 10.8848
409 2 -0.670632 -0.029306 4.03925 16.0997
516 1 1.24631 -0.484089 5.19832 12.4918
309 1 1.44655 -0.459711 2.50473 10.9772
486 2 -0.502655 1.09512 8.8301 10.697
139 2 -0.575608 1.54132 5.47107 12.4854
512 2 -0.78177 0.279334 6.56175 15.5617