ITEM: TIMESTEP
0
ITEM: NUMBER OF ATOMS
6
ITEM: BOX BOUNDS pp pp pp
-2.5000000000000000e+01 2.5000000000000000e+01
-2.0000000000000000e+01 2.0000000000000000e+01
-2.0000000000000000e+01 2.0000000000000000e+01
ITEM: ATOMS id type xs ys zs
1 2 0.22697 0.202939 0.0353528
6 1 0.299599 0.157827 0.148271
2 1 0.141709 0.344358 0.213331
4 1 0.200358 0.830789 0.419376
5 1 0.24801 0.138837 0.795188
3 1 0.0119795 0.0812744 0.940175
ITEM: TIMESTEP
1000000
ITEM: NUMBER OF ATOMS
6
ITEM: BOX BOUNDS pp pp pp
-2.5000000000000000e+01 2.5000000000000000e+01
-2.0000000000000000e+01 2.0000000000000000e+01
-2.0000000000000000e+01 2.0000000000000000e+01
ITEM: ATOMS id type xs ys zs
5 1 0.0080374 0.831299 0.833435
6 1 0.137701 0.0112891 0.76983
4 1 0.0215051 0.295869 0.947208
1 2 0.060374 0.509266 0.501245
3 1 0.834129 0.361695 0.172422
2 1 0.778347 0.84416 0.27038
ITEM: TIMESTEP
2000000
ITEM: NUMBER OF ATOMS
6
ITEM: BOX BOUNDS pp pp pp
-2.5000000000000000e+01 2.5000000000000000e+01
-2.0000000000000000e+01 2.0000000000000000e+01
-2.0000000000000000e+01 2.0000000000000000e+01
ITEM: ATOMS id type xs ys zs
3 1 0.0401545 0.826411 0.19097
6 1 0.0431327 0.529808 0.418139
5 1 0.181109 0.977725 0.440311
1 2 0.101377 0.504494 0.503223
4 1 0.133792 0.613732 0.523751
2 1 0.761947 0.836219 0.508009
ITEM: TIMESTEP
3000000
ITEM: NUMBER OF ATOMS
6
ITEM: BOX BOUNDS pp pp pp
-2.5000000000000000e+01 2.5000000000000000e+01
-2.0000000000000000e+01 2.0000000000000000e+01
-2.0000000000000000e+01 2.0000000000000000e+01
ITEM: ATOMS id type xs ys zs
5 1 0.0025032 0.140796 0.180403
2 1 0.0701736 0.0711979 0.969551
3 1 0.134866 0.150658 0.910475
1 2 0.172785 0.505656 0.522252
4 1 0.80733 0.0997524 0.473016
6 1 0.976051 0.743699 0.866945
ITEM: TIMESTEP
4000000
ITEM: NUMBER OF ATOMS
6
ITEM: BOX BOUNDS pp pp pp
-2.5000000000000000e+01 2.5000000000000000e+01
-2.0000000000000000e+01 2.0000000000000000e+01
-2.0000000000000000e+01 2.0000000000000000e+01
ITEM: ATOMS id type xs ys zs
3 1 0.105071 0.765745 0.0805596
6 1 0.261375 0.979893 0.324408
1 2 0.189076 0.505478 0.49898
4 1 0.820767 0.694292 0.87159
2 1 0.895457 0.209466 0.850674
5 1 0.673873 0.146685 0.518336
ITEM: TIMESTEP
5000000
ITEM: NUMBER OF ATOMS
6
ITEM: BOX BOUNDS pp pp pp
-2.5000000000000000e+01 2.5000000000000000e+01
-2.0000000000000000e+01 2.0000000000000000e+01
-2.0000000000000000e+01 2.0000000000000000e+01
ITEM: ATOMS id type xs ys zs
3 1 0.0388239 0.418066 0.0814494
6 1 0.202581 0.063477 0.820295
4 1 0.0955361 0.786748 0.938041
1 2 0.255737 0.49821 0.511333
2 1 0.723595 0.775313 0.0019502
5 1 0.981528 0.287051 0.626034
ITEM: TIMESTEP
6000000
ITEM: NUMBER OF ATOMS
6
ITEM: BOX BOUNDS pp pp pp
-2.5000000000000000e+01 2.5000000000000000e+01
-2.0000000000000000e+01 2.0000000000000000e+01
-2.0000000000000000e+01 2.0000000000000000e+01
ITEM: ATOMS id type xs ys zs
6 1 0.0378737 0.890248 0.391206
1 2 0.293874 0.491795 0.51124
4 1 0.907541 0.423451 0.133586
5 1 0.958576 0.210669 0.146624
2 1 0.694529 0.446608 0.407646
3 1 0.717065 0.322317 0.871963
ITEM: TIMESTEP
7000000
ITEM: NUMBER OF ATOMS
6
ITEM: BOX BOUNDS pp pp pp
-2.5000000000000000e+01 2.5000000000000000e+01
-2.0000000000000000e+01 2.0000000000000000e+01
-2.0000000000000000e+01 2.0000000000000000e+01
ITEM: ATOMS id type xs ys zs
4 1 0.182088 0.88824 0.136728
5 1 0.275999 0.984454 0.712304
3 1 0.144515 0.44983 0.756477
6 1 0.0643089 0.887535 0.742317
1 2 0.36255 0.511022 0.507387
2 1 0.953793 0.988486 0.547836
ITEM: TIMESTEP
8000000
ITEM: NUMBER OF ATOMS
6
ITEM: BOX BOUNDS pp pp pp
-2.5000000000000000e+01 2.5000000000000000e+01
-2.0000000000000000e+01 2.0000000000000000e+01
-2.0000000000000000e+01 2.0000000000000000e+01
ITEM: ATOMS id type xs ys zs
3 1 0.0233308 0.0650587 0.0687219
6 1 0.164601 0.698156 0.0724653
4 1 0.140708 0.862382 0.189229
1 2 0.389506 0.488434 0.507767
2 1 0.959246 0.606771 0.14021
5 1 0.919008 0.440785 0.300952
ITEM: TIMESTEP
9000000
ITEM: NUMBER OF ATOMS
6
ITEM: BOX BOUNDS pp pp pp
-2.5000000000000000e+01 2.5000000000000000e+01
-2.0000000000000000e+01 2.0000000000000000e+01
-2.0000000000000000e+01 2.0000000000000000e+01
ITEM: ATOMS id type xs ys zs
5 1 0.16075 0.487128 0.160827
1 2 0.456566 0.486784 0.50743
2 1 0.918868 0.679882 0.0217234
6 1 0.925718 0.282136 0.152011
3 1 0.944699 0.180567 0.566176
4 1 0.685096 0.000437918 0.832361
ITEM: TIMESTEP
10000000
ITEM: NUMBER OF ATOMS
6
ITEM: BOX BOUNDS pp pp pp
-2.5000000000000000e+01 2.5000000000000000e+01
-2.0000000000000000e+01 2.0000000000000000e+01
-2.0000000000000000e+01 2.0000000000000000e+01
ITEM: ATOMS id type xs ys zs
4 1 0.108191 0.347072 0.149875
2 1 0.175287 0.437671 0.714625
5 1 0.24049 0.157622 0.788863
6 1 0.28868 0.879502 0.995202
3 1 0.831738 0.305878 0.0971447
1 2 0.503737 0.504624 0.490626
ITEM: TIMESTEP
11000000
ITEM: NUMBER OF ATOMS
6
ITEM: BOX BOUNDS pp pp pp
-2.5000000000000000e+01 2.5000000000000000e+01
-2.0000000000000000e+01 2.0000000000000000e+01
-2.0000000000000000e+01 2.0000000000000000e+01
ITEM: ATOMS id type xs ys zs
4 1 0.228358 0.901809 0.983195
5 1 0.839601 0.537137 0.058715
6 1 0.953817 0.726057 0.1913
3 1 0.832615 0.255241 0.521017
2 1 0.956999 0.435414 0.625415
1 2 0.577722 0.489397 0.496068
ITEM: TIMESTEP
12000000
ITEM: NUMBER OF ATOMS
6
ITEM: BOX BOUNDS pp pp pp
-2.5000000000000000e+01 2.5000000000000000e+01
-2.0000000000000000e+01 2.0000000000000000e+01
-2.0000000000000000e+01 2.0000000000000000e+01
ITEM: ATOMS id type xs ys zs
4 1 0.113588 0.1507 0.546527
6 1 0.0845501 0.592129 0.629829
2 1 0.77944 0.0546679 0.133523
1 2 0.627779 0.495161 0.497994
3 1 0.97833 0.817394 0.708841
5 1 0.889084 0.518657 0.738686
ITEM: TIMESTEP
13000000
ITEM: NUMBER OF ATOMS
6
ITEM: BOX BOUNDS pp pp pp
-2.5000000000000000e+01 2.5000000000000000e+01
-2.0000000000000000e+01 2.0000000000000000e+01
-2.0000000000000000e+01 2.0000000000000000e+01
ITEM: ATOMS id type xs ys zs
6 1 0.111492 0.470932 0.0189393
2 1 0.259792 0.942523 0.723676
5 1 0.123787 0.787313 0.89419
1 2 0.662468 0.492269 0.4946
3 1 0.671718 0.905971 0.688517
4 1 0.76107 0.258717 0.662776
ITEM: TIMESTEP
14000000
ITEM: NUMBER OF ATOMS
6
ITEM: BOX BOUNDS pp pp pp
-2.5000000000000000e+01 2.5000000000000000e+01
-2.0000000000000000e+01 2.0000000000000000e+01
-2.0000000000000000e+01 2.0000000000000000e+01
ITEM: ATOMS id type xs ys zs
4 1 0.0326462 0.841635 0.745027
2 1 0.236086 0.829728 0.863705
3 1 0.0982422 0.909265 0.901468
6 1 0.0714738 0.0299408 0.534939
1 2 0.700003 0.497244 0.502889
5 1 0.755096 0.682869 0.774341
ITEM: TIMESTEP
15000000
ITEM: NUMBER OF ATOMS
6
ITEM: BOX BOUNDS pp pp pp
-2.5000000000000000e+01 2.5000000000000000e+01
-2.0000000000000000e+01 2.0000000000000000e+01
-2.0000000000000000e+01 2.0000000000000000e+01
ITEM: ATOMS id type xs ys zs
4 1 0.0973105 0.769791 0.397924
3 1 0.34413 0.115148 0.521409
1 2 0.764845 0.511497 0.486442
5 1 0.712127 0.0710847 0.52564
6 1 0.973613 0.582912 0.585059
2 1 0.761857 0.259848 0.860215
ITEM: TIMESTEP
16000000
ITEM: NUMBER OF ATOMS
6
ITEM: BOX BOUNDS pp pp pp
-2.5000000000000000e+01 2.5000000000000000e+01
-2.0000000000000000e+01 2.0000000000000000e+01
-2.0000000000000000e+01 2.0000000000000000e+01
ITEM: ATOMS id type xs ys zs
5 1 0.0915114 0.603005 0.370426
3 1 0.0602881 0.498259 0.517591
1 2 0.797089 0.509203 0.495105
4 1 0.982051 0.187814 0.562039
6 1 0.686335 0.162128 0.605104
2 1 0.952128 0.830437 0.583527
ITEM: TIMESTEP
17000000
ITEM: NUMBER OF ATOMS
6
ITEM: BOX BOUNDS pp pp pp
-2.5000000000000000e+01 2.5000000000000000e+01
-2.0000000000000000e+01 2.0000000000000000e+01
-2.0000000000000000e+01 2.0000000000000000e+01
ITEM: ATOMS id type xs ys zs
2 1 0.0189861 0.278019 0.536217
3 1 0.118653 0.205431 0.98962
4 1 0.919425 0.453214 0.195169
5 1 0.750358 0.122078 0.413792
1 2 0.850191 0.498341 0.498064
6 1 0.8694 0.866484 0.72783
ITEM: TIMESTEP
18000000
ITEM: NUMBER OF ATOMS
6
ITEM: BOX BOUNDS pp pp pp
-2.5000000000000000e+01 2.5000000000000000e+01
-2.0000000000000000e+01 2.0000000000000000e+01
-2.0000000000000000e+01 2.0000000000000000e+01
ITEM: ATOMS id type xs ys zs
5 1 0.230138 0.249684 0.0255986
6 1 0.0179437 0.631223 0.207692
3 1 0.0505818 0.0840124 0.405123
2 1 0.19038 0.123897 0.42769
4 1 0.877621 0.919645 0.626758
1 2 0.909217 0.500069 0.524817
ITEM: TIMESTEP
19000000
ITEM: NUMBER OF ATOMS
6
ITEM: BOX BOUNDS pp pp pp
-2.5000000000000000e+01 2.5000000000000000e+01
-2.0000000000000000e+01 2.0000000000000000e+01
-2.0000000000000000e+01 2.0000000000000000e+01
ITEM: ATOMS id type xs ys zs
6 1 0.0404841 0.782573 0.0887488
3 1 0.307625 0.740632 0.511117
5 1 0.0893713 0.225457 0.750607
2 1 0.352047 0.607554 0.834881
4 1 0.994195 0.636043 0.710782
1 2 0.955633 0.498073 0.511042
ITEM: TIMESTEP
20000000
ITEM: NUMBER OF ATOMS
6
ITEM: BOX BOUNDS pp pp pp
-2.5000000000000000e+01 2.5000000000000000e+01
-2.0000000000000000e+01 2.0000000000000000e+01
-2.0000000000000000e+01 2.0000000000000000e+01
ITEM: ATOMS id type xs ys zs
3 1 0.140001 0.355636 0.316976
1 2 0.00351975 0.504977 0.509396
2 1 0.886575 0.608896 0.412429
4 1 0.993535 0.336288 0.0752149
5 1 0.797561 0.272171 0.743282
6 1 0.99827 0.379493 0.671554
