LAMMPS (29 Sep 2021 - Update 2)
OMP_NUM_THREADS environment is not set. Defaulting to 1 thread. (src/comm.cpp:98)
  using 1 OpenMP thread(s) per MPI task
# Initialisation
variable T equal 300

units metal
atom_style full
boundary p p p
pair_style airebo 2.5 1 1

# System definition
read_data cnt.data
Reading data file ...
  orthogonal box = (-30.000000 -30.000000 0.0000000) to (30.000000 30.000000 100.00000)
  1 by 2 by 2 MPI processor grid
  reading atoms ...
  700 atoms
Finding 1-2 1-3 1-4 neighbors ...
  special bond factors lj:    0        0        0       
  special bond factors coul:  0        0        0       
     0 = max # of 1-2 neighbors
     0 = max # of 1-3 neighbors
     0 = max # of 1-4 neighbors
     1 = max # of special neighbors
  special bonds CPU = 0.000 seconds
  read_data CPU = 0.004 seconds
pair_coeff * * CH.airebo C
Reading airebo potential file CH.airebo with DATE: 2011-10-25

# Simulation settings
group gcar type 1
700 atoms in group gcar
variable zmax equal bound(gcar,zmax)-0.5
variable zmin equal bound(gcar,zmin)+0.5
region rtop block INF INF INF INF ${zmax} INF
region rtop block INF INF INF INF 55.239178 INF
region rbot block INF INF INF INF INF ${zmin}
region rbot block INF INF INF INF INF 0.5
region rmid block INF INF INF INF ${zmin} ${zmax}
region rmid block INF INF INF INF 0.5 ${zmax}
region rmid block INF INF INF INF 0.5 55.239178

group gtop region rtop
10 atoms in group gtop
group gbot region rbot
10 atoms in group gbot
group gmid region rmid
680 atoms in group gmid

velocity gmid create ${T} 48455 mom yes rot yes
velocity gmid create 300 48455 mom yes rot yes
fix mynve all nve
compute Tmid gmid temp
fix myber gmid temp/berendsen ${T} ${T} 0.1
fix myber gmid temp/berendsen 300 ${T} 0.1
fix myber gmid temp/berendsen 300 300 0.1
fix_modify myber temp Tmid

fix mysf1 gbot setforce NULL NULL 0
fix mysf2 gtop setforce NULL NULL 0
velocity gbot set NULL NULL 0
velocity gtop set NULL NULL 0

variable pos equal xcm(gtop,z)
fix at1 all ave/time 10 100 1000 v_pos file cnt_deflection.dat
fix at2 all ave/time 10 100 1000 f_mysf1[1] f_mysf2[1] file force.dat
dump mydmp all atom 1000 dump.lammpstrj

thermo 100
thermo_modify temp Tmid
WARNING: Temperature for thermo pressure is not for group all (src/thermo.cpp:482)

# Run
timestep 0.0005
run 5000
Neighbor list info ...
  update every 1 steps, delay 10 steps, check yes
  max neighbors/atom: 2000, page size: 100000
  master list distance cutoff = 10.5
  ghost atom cutoff = 10.5
  binsize = 5.25, bins = 12 12 20
  1 neighbor lists, perpetual/occasional/extra = 1 0 0
  (1) pair airebo, perpetual
      attributes: full, newton on, ghost
      pair build: full/bin/ghost
      stencil: full/ghost/bin/3d
      bin: standard
Per MPI rank memory allocation (min/avg/max) = 7.851 | 7.872 | 7.892 Mbytes
Step Temp E_pair E_mol TotEng Press 
       0          300   -5084.7276            0   -5058.3973   -1515.7017 
     100    237.49462   -5075.4114            0   -5054.5671   -155.05545 
     200    238.86589   -5071.9168            0   -5050.9521   -498.15029 
     300    220.04074   -5067.1113            0   -5047.7989   -1514.8516 
     400    269.23434   -5069.6565            0   -5046.0264   -174.31158 
     500    274.92241   -5068.5989            0   -5044.4696   -381.28758 
     600    261.91841    -5065.985            0   -5042.9971   -1507.5577 
     700    288.47709   -5067.7301            0   -5042.4111   -312.16669 
     800    289.85177   -5066.5482            0   -5041.1086   -259.84893 
     900    279.34891   -5065.0216            0   -5040.5038   -1390.8508 
    1000    312.27343   -5067.6245            0    -5040.217   -465.74352 
    1100    296.79838   -5065.7738            0   -5039.7245   -214.26005 
    1200    270.95687   -5063.2575            0   -5039.4762   -1307.9934 
    1300    305.62464    -5066.381            0    -5039.557   -613.87963 
    1400     296.6987   -5065.1095            0   -5039.0689   -177.48003 
    1500    293.02365   -5064.7377            0   -5039.0197   -1149.4413 
    1600     314.0368   -5066.5034            0   -5038.9412   -757.72518 
    1700    288.14036   -5064.2085            0   -5038.9191   -301.80913 
    1800    301.59831   -5064.8676            0    -5038.397   -929.12184 
    1900    314.42411   -5066.1097            0   -5038.5135   -862.51837 
    2000    284.53456   -5063.9218            0   -5038.9489    -346.7093 
    2100    297.43583    -5064.557            0   -5038.4517   -812.58276 
    2200    291.11601   -5064.0011            0   -5038.4505   -930.87663 
    2300    283.85908   -5063.7144            0   -5038.8007   -493.89935 
    2400    307.56581   -5065.3507            0   -5038.3564   -600.27581 
    2500    299.55552   -5064.6856            0   -5038.3943    -940.5822 
    2600     296.0557   -5064.7583            0   -5038.7742   -659.13823 
    2700    290.20836   -5063.8619            0    -5038.391   -562.40312 
    2800     302.9251   -5064.8122            0   -5038.2252   -847.50405 
    2900    296.72482   -5064.4958            0    -5038.453   -818.37871 
    3000    293.96588    -5064.554            0   -5038.7533   -458.67518 
    3100    297.10779   -5064.5463            0   -5038.4699   -809.36811 
    3200    300.74007   -5064.9214            0   -5038.5261    -871.8059 
    3300    299.40154   -5064.7577            0   -5038.4799   -500.06162 
    3400     301.0983   -5064.7416            0   -5038.3149   -769.54147 
    3500    306.46051   -5065.1931            0   -5038.2958   -894.33383 
    3600    297.19201   -5064.6353            0   -5038.5515   -515.21286 
    3700    306.33462   -5065.1015            0   -5038.2153   -659.77037 
    3800    324.28749    -5066.638            0   -5038.1761   -868.43898 
    3900    306.35666    -5065.473            0   -5038.5848   -614.15169 
    4000    286.11603   -5063.5114            0   -5038.3997   -587.98539 
    4100    300.25618   -5064.6836            0   -5038.3309   -857.11717 
    4200    306.17205   -5065.1893            0   -5038.3173   -754.12957 
    4300    289.37711    -5063.619            0    -5038.221   -476.56254 
    4400    293.35194   -5064.2286            0   -5038.4818   -785.67337 
    4500    301.94229   -5065.2195            0   -5038.7188    -874.9217 
    4600    298.86715   -5064.8236            0   -5038.5927   -465.75249 
    4700    298.53762   -5065.0381            0   -5038.8362   -778.31269 
    4800    294.30847   -5064.2514            0   -5038.4207   -936.19214 
    4900    296.12281   -5064.5492            0   -5038.5592   -420.78715 
    5000    298.14327   -5064.4519            0   -5038.2846   -823.76253 
Loop time of 10.2412 on 4 procs for 5000 steps with 700 atoms

Performance: 21.091 ns/day, 1.138 hours/ns, 488.222 timesteps/s
99.9% CPU use with 4 MPI tasks x 1 OpenMP threads

MPI task timing breakdown:
Section |  min time  |  avg time  |  max time  |%varavg| %total
---------------------------------------------------------------
Pair    | 1.007      | 5.462      | 10.039     | 188.6 | 53.33
Bond    | 0.00028149 | 0.00031562 | 0.0003491  |   0.0 |  0.00
Neigh   | 0          | 0          | 0          |   0.0 |  0.00
Comm    | 0.15404    | 4.7144     | 9.1539     | 202.3 | 46.03
Output  | 0.0018671  | 0.0019872  | 0.0023416  |   0.5 |  0.02
Modify  | 0.033898   | 0.04783    | 0.061215   |   6.1 |  0.47
Other   |            | 0.01474    |            |       |  0.14

Nlocal:        175.000 ave         321 max          36 min
Histogram: 2 0 0 0 0 0 0 0 0 2
Nghost:        345.000 ave         396 max         301 min
Histogram: 2 0 0 0 0 0 0 0 1 1
Neighs:         0.00000 ave           0 max           0 min
Histogram: 4 0 0 0 0 0 0 0 0 0
FullNghs:      27457.5 ave       51825 max        4229 min
Histogram: 2 0 0 0 0 0 0 0 0 2

Total # of neighbors = 109830
Ave neighs/atom = 156.90000
Ave special neighs/atom = 0.0000000
Neighbor list builds = 0
Dangerous builds = 0

# 0.15 A/ps = 30 m/s
velocity gtop set NULL NULL 0.15
run 280000
Per MPI rank memory allocation (min/avg/max) = 7.851 | 7.872 | 7.892 Mbytes
Step Temp E_pair E_mol TotEng Press 
    5000    298.14327   -5064.4519            0   -5038.2846   -823.76253 
    5100    298.88555   -5064.2955            0   -5038.0631   -929.10939 
    5200    312.98439   -5065.6459            0    -5038.176   -458.80503 
    5300    301.57719   -5064.5262            0   -5038.0574   -818.23556 
    5400    303.51468   -5064.6639            0   -5038.0251     -926.424 
    5500    300.35216   -5064.4373            0   -5038.0761   -491.99649 
    5600    303.08853   -5064.9022            0   -5038.3009   -798.25622 
    5700    298.12338   -5064.0091            0   -5037.8435   -951.57306 
    5800    309.37853   -5065.0057            0   -5037.8523   -535.33468 
    5900    306.24916   -5064.8119            0   -5037.9331   -715.24426 
    6000    292.51363   -5063.3932            0   -5037.7199   -967.94767 
    6100    310.49715   -5064.9403            0   -5037.6887   -577.84437 
    6200    290.76692   -5063.1651            0   -5037.6452   -774.48531 
    6300    288.25583   -5062.7218            0   -5037.4223   -1041.5781 
    6400    296.49825   -5063.4383            0   -5037.4154   -645.73701 
    6500    288.26339   -5062.6723            0   -5037.3721   -704.72163 
    6600    284.97827   -5062.2228            0    -5037.211   -1023.8159 
    6700    314.44364   -5064.6818            0   -5037.0838    -673.7402 
    6800     293.4107   -5062.9517            0   -5037.1997   -789.17272 
    6900    289.73147   -5062.8213            0   -5037.3922   -1084.9832 
    7000    293.59882    -5063.112            0   -5037.3435   -720.45242 
    7100    292.03378   -5062.3881            0    -5036.757   -699.97036 
    7200    298.74472   -5063.0961            0   -5036.8759   -1068.2767 
    7300    309.64488   -5063.8362            0   -5036.6594    -797.0564 
    7400    297.68193   -5062.9312            0   -5036.8043    -723.2599 
    7500    310.65253   -5064.0613            0   -5036.7961   -1093.7913 
    7600    310.37737   -5063.8021            0    -5036.561   -867.36705 
    7700    300.10493   -5063.0081            0   -5036.6686   -690.66477 
    7800     301.7824   -5063.1881            0   -5036.7013   -1012.2872 
    7900    313.33143   -5064.0186            0   -5036.5183   -946.04157 
    8000    309.91082   -5063.4497            0   -5036.2495   -742.20181 
    8100    311.17599   -5063.6113            0   -5036.3001   -1040.4096 
    8200     288.6922   -5061.2653            0   -5035.9275   -1022.7874 
    8300    297.27971   -5062.1306            0   -5036.0391   -725.29799 
    8400    301.24368   -5062.1555            0   -5035.7161   -988.38108 
    8500    300.81364   -5062.1781            0   -5035.7763   -1045.1377 
    8600    298.31519   -5061.9464            0    -5035.764    -728.8138 
    8700    296.63836   -5061.6025            0   -5035.5673   -999.95586 
    8800    302.15892   -5062.2427            0   -5035.7229   -1101.9834 
    8900    290.57165   -5061.0794            0   -5035.5766   -738.94499 
    9000    298.24285    -5061.785            0   -5035.6089   -969.69792 
    9100    296.60671   -5061.3896            0   -5035.3571     -1105.17 
    9200     298.3406   -5061.4959            0   -5035.3112   -817.10333 
    9300    310.74532   -5062.2058            0   -5034.9324   -1007.8945 
    9400    295.81078   -5061.0047            0   -5035.0421   -1166.2228 
    9500    305.08836    -5061.604            0   -5034.8271   -845.78286 
    9600     295.3118   -5060.8388            0     -5034.92   -957.61706 
    9700    287.21379   -5059.8178            0   -5034.6097   -1229.1342 
    9800    293.63629   -5060.5325            0   -5034.7608   -901.61683 
    9900    295.29206   -5060.3825            0   -5034.4654   -972.69731 
   10000    292.44856   -5060.0749            0   -5034.4073   -1251.2112 
   10100    305.79876   -5061.3164            0   -5034.4771   -901.24448 
   10200    294.16427   -5060.2308            0   -5034.4127   -962.49129 
   10300    294.47723   -5060.4422            0   -5034.5967   -1237.3969 
   10400     302.6901   -5060.4508            0   -5033.8844   -965.09562 
   10500    305.95285   -5060.9548            0   -5034.1021   -881.61423 
   10600    286.35718    -5058.999            0   -5033.8661   -1284.8685 
   10700    306.38052   -5060.9126            0   -5034.0223   -996.88428 
   10800    305.59759     -5060.73            0   -5033.9084   -924.53752 
   10900     286.4025   -5058.5286            0   -5033.3918   -1253.7724 
   11000    297.37133   -5059.7112            0   -5033.6116   -1039.0235 
   11100     305.3456   -5060.1123            0   -5033.3128   -972.31317 
   11200    306.48017   -5060.3063            0   -5033.4073   -1275.4355 
   11300    303.06828    -5059.627            0   -5033.0274   -1076.5823 
   11400    294.96466   -5059.0573            0    -5033.169   -969.01793 
   11500     300.4149   -5059.2131            0   -5032.8464   -1304.3292 
   11600     296.1929   -5058.5308            0   -5032.5347   -1130.5625 
   11700     297.8922   -5058.6517            0   -5032.5064   -970.20673 
   11800    307.22781   -5059.6912            0   -5032.7265   -1345.0764 
   11900     300.9391   -5059.1144            0   -5032.7017   -1165.0521 
   12000    287.93602   -5057.8973            0   -5032.6258   -925.86979 
   12100    310.31712   -5059.7529            0   -5032.5171   -1293.7586 
   12200    301.38164   -5058.8223            0   -5032.3707    -1259.651 
   12300    284.91348   -5056.9904            0   -5031.9842   -926.80035 
   12400     300.1587   -5058.2836            0   -5031.9394   -1230.5128 
   12500    294.07307   -5057.8228            0   -5032.0127   -1316.3987 
   12600    296.06304   -5057.7966            0   -5031.8118   -994.18076 
   12700    291.02787   -5057.3077            0   -5031.7648    -1246.276 
   12800    295.11845   -5057.2707            0   -5031.3688   -1324.6111 
   12900    296.12313    -5057.751            0    -5031.761   -1014.1219 
   13000    300.47138   -5058.1911            0   -5031.8194   -1252.1579 
   13100     307.4847   -5058.3099            0   -5031.3227   -1433.4097 
   13200    302.97468   -5057.8138            0   -5031.2225   -1057.0314 
   13300     304.4681   -5057.9345            0   -5031.2121   -1222.6422 
   13400    315.21764    -5058.643            0   -5030.9771   -1412.8589 
   13500    298.57886   -5057.0576            0    -5030.852   -1106.0334 
   13600    289.92514   -5056.2681            0   -5030.8221   -1246.2337 
   13700    294.50147    -5056.345            0   -5030.4973   -1454.7351 
   13800    303.59498   -5057.0822            0   -5030.4364   -1090.4563 
   13900    312.56303   -5057.8711            0   -5030.4382   -1156.5023 
   14000    295.30345   -5056.1598            0   -5030.2418   -1466.1946 
   14100     294.6624   -5055.9957            0   -5030.1339   -1196.8272 
   14200    307.85302   -5057.0117            0   -5029.9922   -1135.7279 
   14300    298.13917   -5056.0582            0   -5029.8912   -1511.2966 
   14400    295.87585   -5055.9359            0   -5029.9676   -1192.2796 
   14500    314.76643   -5057.2664            0   -5029.6401   -1187.8289 
   14600    305.87831   -5056.3897            0   -5029.5435   -1521.1266 
   14700    303.45118   -5055.8218            0   -5029.1886   -1279.7334 
   14800    309.40632   -5056.2545            0   -5029.0987   -1164.4117 
   14900    303.84861    -5055.723            0   -5029.0549   -1526.1599 
   15000    306.15949   -5055.7596            0   -5028.8887   -1318.9902 
   15100    295.18442   -5054.7622            0   -5028.8546   -1195.0718 
   15200    295.63969   -5054.8133            0   -5028.8657     -1514.11 
   15300    312.20516   -5056.2588            0   -5028.8573   -1370.1059 
   15400    295.15751    -5054.645            0   -5028.7398    -1151.763 
   15500    290.21615   -5053.8923            0   -5028.4207   -1489.1583 
   15600    288.06128   -5053.6142            0   -5028.3318   -1407.6367 
   15700    297.65198   -5054.8025            0   -5028.6783   -1223.8383 
   15800    296.27219   -5054.2543            0   -5028.2511   -1505.3885 
   15900     302.9281   -5054.8085            0   -5028.2213   -1392.7596 
   16000    292.77536   -5053.6319            0   -5027.9357   -1253.2252 
   16100    297.72022   -5053.9438            0   -5027.8136   -1494.0903 
   16200    293.38373   -5053.3635            0   -5027.6139   -1476.7756 
   16300    293.84564   -5053.2874            0   -5027.4972   -1302.6206 
   16400    288.44804   -5052.6689            0   -5027.3525   -1453.7624 
   16500    299.32572    -5053.235            0   -5026.9639   -1502.7995 
   16600    297.14244   -5052.9141            0   -5026.8346   -1317.2638 
   16700    294.89213   -5052.7598            0   -5026.8778   -1495.1293 
   16800    301.01905   -5053.1706            0   -5026.7509   -1563.1021 
   16900    300.53687   -5053.0946            0   -5026.7172   -1332.8837 
   17000    294.30875   -5052.7517            0   -5026.9209   -1441.5709 
   17100    299.37463   -5052.8686            0   -5026.5932   -1568.1677 
   17200    289.22743   -5051.9693            0   -5026.5845   -1373.9632 
   17300    296.99979   -5052.4343            0   -5026.3673   -1422.1504 
   17400    309.44498    -5053.108            0   -5025.9487   -1570.2296 
   17500    303.28615   -5052.4931            0   -5025.8744   -1427.5711 
   17600    299.69505   -5052.0222            0   -5025.7187   -1413.4149 
   17700    308.10249   -5052.6903            0   -5025.6488   -1646.9601 
   17800    300.99701   -5051.8567            0   -5025.4389   -1444.1564 
   17900    295.26071   -5051.4932            0   -5025.5789   -1420.4641 
   18000    308.43198   -5052.4229            0   -5025.3526   -1678.3403 
   18100    314.47126   -5052.6506            0   -5025.0502   -1547.4987 
   18200     305.7499    -5051.737            0    -5024.902   -1436.6005 
   18300    307.61897   -5051.9358            0   -5024.9368   -1649.8156 
   18400    299.27637   -5050.8973            0   -5024.6305   -1524.7195 
   18500    294.33089   -5050.3142            0   -5024.4815   -1441.2493 
   18600    300.35701   -5050.6911            0   -5024.3295   -1642.1817 
   18700    301.13594   -5050.5833            0   -5024.1534   -1528.2114 
   18800    289.12037   -5049.5163            0   -5024.1408   -1437.7106 
   18900    296.36179   -5050.0421            0   -5024.0311    -1639.584 
   19000    300.66342   -5050.4713            0   -5024.0828   -1592.1453 
   19100    295.87509    -5049.833            0   -5023.8648   -1520.0169 
   19200    293.94367   -5049.5661            0   -5023.7674   -1607.9527 
   19300    305.45453   -5050.4201            0   -5023.6111   -1612.0544 
   19400    299.76962   -5049.6945            0   -5023.3844   -1555.8449 
   19500    290.54507   -5048.5952            0   -5023.0947   -1678.4025 
   19600    305.68426   -5049.8288            0   -5022.9996   -1664.8017 
   19700    307.39951   -5049.5257            0    -5022.546   -1540.0687 
   19800    296.40409    -5048.652            0   -5022.6373   -1617.4704 
   19900    304.67418   -5049.3837            0   -5022.6431   -1696.5695 
   20000    297.42759   -5048.6705            0    -5022.566    -1613.782 
   20100    294.85295   -5048.3152            0   -5022.4367   -1617.9602 
   20200    303.83072   -5049.0744            0   -5022.4079   -1686.8151 
   20300     297.7136   -5048.2527            0    -5022.123   -1592.9615 
   20400    297.27476   -5048.0906            0   -5021.9995   -1637.1316 
   20500    299.84102   -5047.9516            0   -5021.6353   -1719.5169 
   20600    295.87183   -5047.3347            0   -5021.3667   -1638.5457 
   20700    303.50905   -5047.7857            0   -5021.1474   -1628.0485 
   20800      303.944   -5047.8571            0   -5021.1806   -1726.5072 
   20900    302.86893   -5047.8053            0   -5021.2232   -1688.2604 
   21000    309.51496   -5048.3491            0   -5021.1837   -1679.6349 
   21100    297.91805   -5046.9392            0   -5020.7916    -1744.651 
   21200    308.35364    -5047.636            0   -5020.5725   -1718.1067 
   21300    298.52236   -5046.7437            0   -5020.5431   -1708.5091 
   21400    294.52889    -5046.065            0   -5020.2149   -1768.6606 
   21500    306.67103   -5046.9148            0    -5019.999   -1748.3985 
   21600    304.50393   -5046.6004            0   -5019.8748   -1691.6434 
   21700    295.18925    -5045.858            0   -5019.9499   -1731.1823 
   21800    306.17957   -5046.3841            0   -5019.5115   -1767.1124 
   21900    299.91647   -5046.0531            0   -5019.7301   -1727.7354 
   22000    297.78217   -5045.5886            0   -5019.4529   -1752.5676 
   22100    294.52855   -5045.0993            0   -5019.2492   -1726.3918 
   22200    296.42391   -5045.1233            0   -5019.1069   -1724.3008 
   22300    306.63628   -5045.8204            0   -5018.9076   -1783.9051 
   22400    303.52686    -5045.412            0   -5018.7721   -1831.0196 
   22500    304.38515   -5045.3124            0   -5018.5973   -1756.8594 
   22600     297.3832   -5044.5124            0   -5018.4117   -1785.3726 
   22700    293.49127   -5044.0293            0   -5018.2703   -1828.3045 
   22800    286.11263   -5043.0577            0   -5017.9462   -1797.1287 
   22900    296.24511   -5043.9042            0   -5017.9035   -1828.2729 
   23000     301.0125   -5044.2436            0   -5017.8245   -1879.6758 
   23100    296.57216   -5043.6362            0   -5017.6068   -1722.7073 
   23200    303.66018   -5044.1886            0   -5017.5371   -1830.6234 
   23300    309.43635   -5044.3773            0   -5017.2188   -1929.9367 
   23400    294.94366   -5042.8815            0   -5016.9949   -1742.0089 
   23500    302.24984   -5043.4285            0   -5016.9008   -1822.7287 
   23600    307.74494   -5043.8343            0   -5016.8242   -1916.5734 
   23700    307.69472   -5043.6249            0   -5016.6192   -1744.9142 
   23800    305.07886   -5043.2834            0   -5016.5073   -1858.1106 
   23900    297.35587   -5042.4633            0   -5016.3651   -1971.6009 
   24000    303.31164   -5043.0117            0   -5016.3907   -1778.5966 
   24100    301.42121   -5042.5794            0   -5016.1243   -1893.7162 
   24200    293.50857   -5041.8843            0   -5016.1238   -1961.5174 
   24300    300.23431   -5042.0145            0   -5015.6636   -1873.0201 
   24400    304.28417   -5042.1167            0   -5015.4104   -1877.0273 
   24500     303.0641   -5041.7745            0   -5015.1753   -2000.5232 
   24600    296.83885   -5040.9846            0   -5014.9317   -1862.8125 
   24700    298.72686   -5041.1106            0    -5014.892   -1889.5397 
   24800    299.85591   -5041.0786            0    -5014.761   -2027.3514 
   24900    299.18209   -5040.7531            0   -5014.4946    -1884.582 
   25000    307.86803   -5041.5135            0   -5014.4927    -1887.537 
   25100    285.46664   -5039.3783            0   -5014.3235   -2036.2411 
   25200    302.26463   -5040.5836            0   -5014.0545    -1887.999 
   25300    298.58174   -5040.2272            0   -5014.0214   -1906.0024 
   25400    295.67436   -5039.6013            0   -5013.6507   -2011.7816 
   25500    309.07475   -5040.5705            0   -5013.4437   -1930.4783 
   25600    300.89872   -5039.7461            0    -5013.337   -1924.0861 
   25700    298.59806   -5039.6818            0   -5013.4746   -2027.0845 
   25800    306.71767    -5039.791            0   -5012.8712   -1966.6712 
   25900     305.5383   -5039.6737            0   -5012.8574   -1966.8261 
   26000    299.22156   -5039.2663            0   -5013.0043   -2056.2284 
   26100    304.67109   -5039.3814            0   -5012.6411   -2015.0955 
   26200    304.76348   -5038.8823            0   -5012.1339   -1977.1351 
   26300    308.88245   -5039.0751            0   -5011.9652    -2045.982 
   26400    305.53849   -5038.7037            0   -5011.8873   -2036.0876 
   26500    309.17668   -5038.6101            0   -5011.4744   -1978.5965 
   26600    297.29503   -5037.5316            0   -5011.4387   -2038.2767 
   26700     297.6588   -5037.7135            0   -5011.5887    -2049.098 
   26800    291.78993   -5036.9329            0   -5011.3232   -1988.2004 
   26900    289.76554    -5036.553            0   -5011.1209   -1998.4691 
   27000    308.21693   -5037.9756            0   -5010.9241   -2096.7506 
   27100    283.66649   -5035.7408            0   -5010.8441   -1983.9285 
   27200    293.93423   -5036.4224            0   -5010.6245   -2040.9361 
   27300    296.32891   -5036.3119            0   -5010.3038   -2129.0811 
   27400    310.24314   -5037.4735            0   -5010.2442   -2073.7288 
   27500    300.97146   -5036.2827            0   -5009.8671    -2017.748 
   27600    300.16782   -5035.9517            0   -5009.6067   -2116.2882 
   27700    293.65478   -5035.2571            0   -5009.4837   -2127.3525 
   27800     295.3383   -5035.1541            0    -5009.233   -2075.2517 
   27900    294.37206   -5035.0874            0    -5009.251    -2140.764 
   28000      286.592   -5034.2409            0   -5009.0874   -2108.5519 
   28100    294.56029   -5034.7482            0   -5008.8953   -2073.2912 
   28200    310.31182   -5035.7477            0   -5008.5124   -2185.5552 
   28300    312.44217   -5035.6725            0   -5008.2502   -2085.6827 
   28400    300.31229   -5034.5581            0   -5008.2004   -2059.8686 
   28500    299.82181   -5034.4912            0   -5008.1765   -2161.2979 
   28600    291.38075   -5033.4486            0   -5007.8748   -2119.5583 
   28700     301.0316   -5034.3719            0   -5007.9511   -2097.0371 
   28800    299.17719   -5033.9449            0   -5007.6868   -2227.2026 
   28900    287.45133   -5032.5337            0   -5007.3048   -2144.2539 
   29000    297.84624   -5033.5613            0     -5007.42    -2096.536 
   29100    288.88199   -5032.4599            0   -5007.1054   -2264.7813 
   29200    296.73848   -5032.8985            0   -5006.8545   -2153.0223 
   29300    300.72135   -5032.8346            0    -5006.441   -2092.5435 
   29400    290.16236   -5031.7711            0   -5006.3043   -2266.5444 
   29500    305.42332   -5032.6941            0   -5005.8879   -2223.7647 
   29600    290.56551   -5031.5396            0   -5006.0374   -2072.9244 
   29700    305.38145   -5032.6288            0   -5005.8262   -2294.9948 
   29800    300.87392   -5032.2059            0   -5005.7989   -2245.7863 
   29900    300.07428   -5031.7302            0   -5005.3934   -2083.2664 
   30000    296.34629   -5031.3436            0    -5005.334   -2278.5512 
   30100    299.54336   -5031.3134            0   -5005.0231   -2274.7418 
   30200    302.69399   -5031.1006            0   -5004.5338   -2080.4787 
   30300    299.26249   -5030.7902            0   -5004.5246   -2273.8611 
   30400    299.52175   -5030.3769            0   -5004.0886   -2273.1989 
   30500    293.12186   -5030.0135            0   -5004.2869   -2112.9917 
   30600    305.20346   -5030.8035            0   -5004.0165   -2300.7779 
   30700    300.75973   -5030.2356            0   -5003.8387   -2312.9893 
   30800    299.77674   -5029.9637            0    -5003.653   -2209.3795 
   30900    292.60857   -5028.9077            0   -5003.2262    -2277.995 
   31000    298.61259   -5029.1447            0   -5002.9362   -2335.2936 
   31100     295.8283   -5028.6008            0   -5002.6366   -2207.9179 
   31200    294.37457    -5028.425            0   -5002.5885   -2328.1803 
   31300    299.53366    -5028.676            0   -5002.3866   -2332.0657 
   31400    298.79605   -5028.4968            0   -5002.2721   -2226.3241 
   31500    311.37426   -5029.4457            0   -5002.1172   -2293.0487 
   31600    310.43613   -5029.3184            0   -5002.0722   -2349.3993 
   31700    301.64971   -5028.2216            0   -5001.7466   -2212.7219 
   31800    306.82697   -5028.4689            0   -5001.5394   -2309.0018 
   31900    303.55941   -5027.9438            0   -5001.3011   -2391.5044 
   32000    291.15595   -5026.7144            0   -5001.1603   -2277.3978 
   32100     315.6275    -5028.374            0   -5000.6721   -2303.1756 
   32200    305.51782   -5027.2164            0   -5000.4018   -2386.3176 
   32300    298.11298   -5026.6888            0   -5000.5241   -2323.8011 
   32400    297.32005   -5026.2071            0   -5000.1121   -2294.4413 
   32500    300.24748   -5026.5095            0   -5000.1575   -2439.6492 
   32600    302.03434   -5026.4357            0   -4999.9268   -2361.6431 
   32700     301.5344   -5026.0303            0   -4999.5653   -2331.4581 
   32800    285.71841   -5024.2305            0   -4999.1537     -2459.53 
   32900    303.51034   -5025.7569            0   -4999.1185   -2428.4751 
   33000    298.25795    -5025.067            0   -4998.8896   -2283.0152 
   33100    315.05578   -5026.3702            0   -4998.7185   -2425.6793 
   33200    303.69583   -5025.0938            0   -4998.4391   -2405.8483 
   33300    306.78653   -5025.3474            0   -4998.4215   -2300.5772 
   33400    301.75285   -5024.6248            0   -4998.1407   -2458.6772 
   33500    297.23395   -5024.4474            0   -4998.3599   -2421.0449 
   33600    300.98832   -5024.3189            0   -4997.9018   -2323.0442 
   33700    291.47662   -5023.2367            0   -4997.6545   -2481.9348 
   33800    298.57428   -5023.5175            0   -4997.3123   -2492.1385 
   33900    305.85119   -5023.9831            0   -4997.1393   -2311.9118 
   34000    288.23543    -5022.308            0   -4997.0103   -2484.8799 
   34100    301.12807   -5023.2163            0    -4996.787    -2511.257 
   34200    298.33213    -5022.781            0   -4996.5971   -2411.1642 
   34300    312.25996   -5023.4595            0   -4996.0532    -2461.618 
   34400    300.89069   -5022.3851            0   -4995.9766   -2521.7825 
   34500    304.63987   -5022.4696            0   -4995.7321   -2431.0194 
   34600    295.11431   -5021.2846            0   -4995.3832   -2482.8327 
   34700    295.33377   -5021.1759            0   -4995.2551   -2516.3271 
   34800    309.72191   -5022.2566            0    -4995.073   -2442.5268 
   34900    298.81447   -5021.1019            0   -4994.8757   -2451.6992 
   35000    297.73032   -5020.9138            0   -4994.7827   -2514.4901 
   35100    284.78053   -5019.5912            0   -4994.5966   -2493.8214 
   35200    299.94223   -5020.6122            0    -4994.287   -2441.1171 
   35300    299.35206   -5020.2991            0   -4994.0257   -2559.5158 
   35400    304.33419   -5020.5868            0   -4993.8761   -2518.7194 
   35500    306.21665   -5020.6673            0   -4993.7914   -2493.9176 
   35600    291.52393   -5019.1827            0   -4993.5963    -2539.412 
   35700    299.45746   -5019.4493            0   -4993.1666   -2558.5191 
   35800    293.72852   -5018.7107            0   -4992.9308   -2505.6522 
   35900    295.20918   -5018.5202            0   -4992.6104   -2570.9832 
   36000    298.57556   -5018.5504            0   -4992.3451   -2606.1804 
   36100    298.04361   -5018.2675            0    -4992.109   -2569.0661 
   36200    304.56169   -5018.6711            0   -4991.9405   -2574.8639 
   36300    302.84042   -5018.3343            0   -4991.7547   -2578.7443 
   36400    292.90623   -5017.4608            0   -4991.7531    -2580.063 
   36500    293.16892   -5017.1195            0   -4991.3888   -2536.9091 
   36600    301.59646   -5017.5552            0   -4991.0848   -2577.2386 
   36700    301.75486   -5017.3926            0   -4990.9083   -2570.0955 
   36800    291.77356   -5016.0232            0   -4990.4149   -2595.8688 
   36900    295.61316   -5016.2915            0   -4990.3462   -2636.3888 
   37000    295.98086   -5016.1481            0   -4990.1706   -2562.0393 
   37100     302.4486   -5016.4403            0   -4989.8951   -2590.0884 
   37200    294.54156   -5015.7427            0   -4989.8915   -2644.6318 
   37300    309.32838   -5016.6415            0   -4989.4925    -2629.007 
   37400    303.17744   -5015.9722            0    -4989.363   -2638.0812 
   37500     295.4867   -5014.9631            0   -4989.0289   -2633.4924 
   37600    306.89791   -5015.5464            0   -4988.6107   -2649.3092 
   37700    296.11954    -5014.425            0   -4988.4353   -2660.0485 
   37800     297.7793   -5014.3674            0    -4988.232   -2690.2774 
   37900    301.92547   -5014.6939            0   -4988.1946   -2594.3361 
   38000    299.22444   -5014.2107            0   -4987.9485   -2673.5183 
   38100    297.33224    -5013.644            0   -4987.5479   -2708.9383 
   38200    295.06317   -5013.2821            0   -4987.3851   -2605.7648 
   38300    294.29743   -5012.9248            0    -4987.095   -2633.8741 
   38400    302.53764   -5013.5642            0   -4987.0111   -2746.0462 
   38500    294.10569   -5012.5309            0    -4986.718   -2571.9194 
   38600    286.47244   -5011.4673            0   -4986.3243   -2683.1154 
   38700    302.80147   -5012.6896            0   -4986.1134   -2756.5318 
   38800    294.26702   -5011.9287            0   -4986.1016   -2658.5649 
   38900    311.05558   -5013.0256            0    -4985.725   -2675.0429 
   39000    296.71047   -5011.6343            0   -4985.5927   -2783.9553 
   39100    300.98182   -5011.5834            0    -4985.167   -2733.6344 
   39200    300.31264   -5011.2216            0   -4984.8639   -2662.4907 
   39300    304.43606    -5011.362            0   -4984.6424   -2779.9851 
   39400    302.84324   -5010.8147            0   -4984.2349   -2753.9008 
   39500    307.65402   -5011.3431            0    -4984.341   -2697.1439 
   39600    310.11031   -5011.3046            0    -4984.087   -2830.1583 
   39700    296.46608   -5009.6111            0    -4983.591    -2755.983 
   39800    307.05717   -5010.5407            0    -4983.591   -2663.3515 
   39900    297.48029   -5009.4523            0   -4983.3432   -2815.8981 
   40000    303.85417   -5009.6224            0   -4982.9539   -2777.3356 
   40100    292.59891    -5008.434            0   -4982.7532   -2665.6449 
   40200    289.57444   -5007.9603            0    -4982.545   -2851.3645 
   40300     284.0213   -5007.1153            0   -4982.1874   -2833.0509 
   40400     310.6689   -5009.2188            0   -4981.9521   -2687.8471 
   40500    297.08939   -5008.1224            0   -4982.0476   -2849.1137 
   40600    296.00653   -5007.6199            0   -4981.6402   -2841.3135 
   40700    302.43317   -5007.8081            0   -4981.2643   -2698.0534 
   40800    292.02395   -5006.8178            0   -4981.1875   -2896.6565 
   40900    298.99845   -5007.0004            0    -4980.758   -2884.3588 
   41000     285.7718   -5005.4311            0   -4980.3496    -2736.965 
   41100    305.39952   -5007.0362            0    -4980.232   -2890.3704 
   41200     296.3161   -5005.9986            0   -4979.9917      -2844.5 
   41300    294.46092   -5005.7041            0     -4979.86   -2724.9042 
   41400    304.22414   -5006.1841            0    -4979.483   -2904.0676 
   41500    296.36286   -5005.0999            0   -4979.0888    -2919.455 
   41600    297.86108   -5005.2626            0     -4979.12   -2742.8239 
   41700    298.00452   -5005.0233            0   -4978.8681   -2841.3284 
   41800    301.92773    -5005.038            0   -4978.5386   -2974.0939 
   41900    295.99682   -5004.3425            0   -4978.3636   -2762.2721 
   42000    313.14622   -5005.7747            0   -4978.2906   -2859.0503 
   42100    292.69858   -5003.4766            0   -4977.7871   -2995.9358 
   42200    282.84772   -5002.6581            0   -4977.8332   -2795.3651 
   42300    304.85188   -5003.9397            0   -4977.1835   -2909.8921 
   42400      306.881   -5003.7075            0   -4976.7733   -3022.6082 
   42500    297.11167   -5002.7894            0   -4976.7126   -2849.4069 
   42600    312.16047   -5003.8963            0   -4976.4987   -2822.2865 
   42700    301.80405   -5002.8535            0   -4976.3649   -3053.4926 
   42800    308.24133   -5002.9566            0   -4975.9029   -2862.1915 
   42900    297.88454   -5001.8166            0    -4975.672   -2837.5423 
   43000    301.44489   -5001.8057            0   -4975.3486   -2997.3584 
   43100    303.19162   -5001.6436            0   -4975.0332   -2914.1807 
   43200    291.04897   -5000.3968            0   -4974.8521   -2841.2669 
   43300     295.8598   -5000.4101            0   -4974.4432   -3010.8312 
   43400    305.03463   -5001.1171            0   -4974.3449   -2938.0064 
   43500     285.6632   -4999.4728            0   -4974.4008   -2855.3732 
   43600    293.12376   -4999.7799            0   -4974.0531   -3010.8823 
   43700    300.18402   -4999.8524            0    -4973.506   -3007.2262 
   43800    298.06393   -4999.6833            0   -4973.5229   -2916.2965 
   43900    294.60731   -4998.9602            0   -4973.1032   -3025.6078 
   44000    300.51339   -4999.1039            0   -4972.7285   -3048.5882 
   44100    294.47472   -4998.2905            0   -4972.4451   -2894.9358 
   44200    296.57615   -4998.1402            0   -4972.1104   -3052.0368 
   44300    294.24081   -4997.6083            0   -4971.7835   -3030.4511 
   44400    300.30628   -4998.0935            0   -4971.7363    -2911.002 
   44500    295.68086   -4997.4026            0   -4971.4514   -3022.6629 
   44600    300.15257   -4997.6005            0   -4971.2568   -3072.5161 
   44700     300.2705   -4997.4251            0    -4971.071   -2944.5491 
   44800    305.85772   -4997.6216            0   -4970.7772   -3038.8991 
   44900    297.37234   -4996.3221            0   -4970.2225   -3062.2446 
   45000    293.37277   -4995.9505            0   -4970.2019   -2930.0391 
   45100    298.75854   -4996.0435            0   -4969.8221   -3054.4108 
   45200    294.46428   -4995.5205            0   -4969.6761   -3092.2759 
   45300    305.47144   -4996.1554            0   -4969.3449   -2976.2943 
   45400    299.41824   -4995.6245            0   -4969.3452   -3064.6979 
   45500    302.58782    -4995.546            0   -4968.9886    -3143.138 
   45600     295.9872   -4994.5178            0   -4968.5397   -3030.2887 
   45700    306.70699   -4995.0034            0   -4968.0845   -3042.7039 
   45800    286.80865   -4993.1153            0   -4967.9427   -3128.9689 
   45900    291.24273   -4993.1972            0   -4967.6355   -3069.2296 
   46000     285.1736   -4992.4096            0   -4967.3806   -3114.8915 
   46100    303.18504   -4993.7525            0   -4967.1427    -3123.183 
   46200    308.49139   -4994.3009            0   -4967.2253   -3052.1022 
   46300    300.53809     -4993.17            0   -4966.7925   -3079.9056 
   46400    302.65753   -4993.0251            0   -4966.4615   -3138.7527 
   46500    297.22018   -4992.1518            0   -4966.0655   -3093.9945 
   46600    300.57309   -4991.9127            0   -4965.5321   -3044.7082 
   46700    299.07141   -4991.7696            0   -4965.5209    -3143.538 
   46800     294.3675   -4991.1714            0   -4965.3355   -3186.1646 
   46900    296.79264   -4991.2703            0   -4965.2215   -3113.8452 
   47000    304.13529   -4991.4683            0    -4964.775    -3098.172 
   47100    295.43748   -4990.6286            0   -4964.6987   -3121.9806 
   47200    303.84503   -4990.8228            0   -4964.1551   -3165.5063 
   47300    292.20025   -4989.5364            0   -4963.8907   -3181.2282 
   47400    304.88479   -4990.3465            0   -4963.5875   -3180.6608 
   47500    299.22998   -4989.3247            0   -4963.0619   -3169.7479 
   47600    317.84903   -4990.7648            0   -4962.8679   -3175.4354 
   47700    303.24602   -4989.3626            0   -4962.7474   -3200.5285 
   47800    304.45774   -4989.4443            0   -4962.7228   -3150.1694 
   47900    290.57303   -4987.9123            0   -4962.4094   -3134.3068 
   48000    307.45936   -4989.1585            0   -4962.1735   -3209.9131 
   48100    292.61439   -4987.5597            0   -4961.8776   -3143.2241 
   48200    294.49646   -4987.4896            0   -4961.6424   -3251.6584 
   48300    304.51546   -4987.9129            0   -4961.1863   -3230.1215 
   48400    294.24387   -4986.8073            0   -4960.9822   -3130.2798 
   48500    304.26286   -4987.3795            0    -4960.675   -3211.7198 
   48600    295.74412   -4986.2944            0   -4960.3377   -3300.2331 
   48700    317.62753   -4988.2885            0   -4960.4111   -3186.9365 
   48800    308.52607   -4986.9117            0   -4959.8331   -3188.5329 
   48900    297.45612    -4985.552            0    -4959.445   -3313.4645 
   49000    293.07977   -4984.9241            0   -4959.2011   -3225.5839 
   49100    291.82127    -4984.408            0   -4958.7955   -3219.1778 
   49200    293.15363   -4984.2245            0   -4958.4951   -3298.9166 
   49300    305.29711   -4985.1793            0   -4958.3841   -3244.6268 
   49400    295.19013   -4984.0291            0    -4958.121   -3170.4716 
   49500    306.30287   -4984.7304            0   -4957.8469   -3349.1975 
   49600    308.12065   -4984.5527            0   -4957.5097   -3291.0157 
   49700    291.16272   -4982.9397            0   -4957.3851   -3184.0169 
   49800    293.08969     -4982.84            0   -4957.1162   -3298.4843 
   49900    288.24643   -4981.9795            0   -4956.6807   -3305.5005 
   50000    295.49149   -4982.1531            0   -4956.2185   -3212.5149 
   50100    298.18442   -4982.2362            0   -4956.0653   -3285.0765 
   50200    305.63062   -4982.4909            0   -4955.6664   -3301.8324 
   50300    294.54385   -4981.5841            0   -4955.7327   -3232.2503 
   50400    285.74374    -4980.439            0   -4955.3599   -3354.3917 
   50500    300.63426   -4981.4288            0   -4955.0429   -3385.2979 
   50600    302.70777   -4981.2639            0    -4954.696   -3253.3821 
   50700    293.13932   -4980.0775            0   -4954.3493   -3348.8265 
   50800    294.61327   -4979.9831            0   -4954.1256   -3389.2112 
   50900    306.15119    -4980.585            0   -4953.7149   -3254.1751 
   51000    296.86347   -4979.3491            0   -4953.2941   -3360.2117 
   51100    300.89365   -4979.4604            0   -4953.0517   -3383.0454 
   51200    308.49983   -4980.0083            0    -4952.932    -3286.637 
   51300     303.6237   -4979.3971            0   -4952.7488   -3399.1425 
   51400    297.38675   -4978.6032            0   -4952.5023   -3379.4262 
   51500    291.34755   -4977.3806            0   -4951.8097   -3192.6304 
   51600    292.67987   -4977.4756            0   -4951.7878   -3322.8964 
   51700    293.63958   -4977.2626            0   -4951.4905   -3497.9923 
   51800    295.77428   -4977.0853            0   -4951.1259   -3259.3339 
   51900    300.10871   -4977.0389            0    -4950.699    -3356.588 
   52000    299.37646   -4976.8237            0   -4950.5482   -3503.8298 
   52100    301.24216   -4976.7569            0   -4950.3176    -3316.341 
   52200    306.01066   -4976.9604            0   -4950.1025   -3362.8717 
   52300    299.39006   -4975.9053            0   -4949.6285    -3551.812 
   52400    313.29471    -4976.761            0   -4949.2639   -3319.4265 
   52500    307.91187   -4976.0577            0    -4949.033   -3343.0279 
   52600    301.52566   -4975.2443            0   -4948.7801   -3565.5996 
   52700    299.11596   -4974.9032            0   -4948.6505   -3418.5364 
   52800    300.47013   -4974.4314            0   -4948.0598   -3334.6631 
   52900    306.26987   -4974.7921            0   -4947.9116   -3484.4452 
   53000     306.1352   -4974.4879            0   -4947.6192   -3425.6093 
   53100    299.90286   -4973.6628            0    -4947.341   -3343.7236 
   53200    295.71886   -4972.8883            0   -4946.9337   -3470.4944 
   53300    301.70884   -4973.0304            0   -4946.5502    -3401.293 
   53400    296.94005   -4972.4849            0   -4946.4231    -3382.541 
   53500    306.27968   -4973.1175            0   -4946.2361   -3520.7952 
   53600    294.71897   -4971.5869            0   -4945.7201   -3467.8911 
   53700    290.36798   -4970.8549            0     -4945.37   -3436.6028 
   53800    291.74361    -4970.713            0   -4945.1073     -3456.09 
   53900    287.54678   -4970.0003            0    -4944.763   -3480.2089 
   54000    309.56578    -4971.633            0   -4944.4632   -3528.8028 
   54100    303.60388    -4970.891            0   -4944.2444   -3494.2045 
   54200    287.34331   -4969.1517            0   -4943.9322    -3477.363 
   54300    304.39322   -4970.2812            0   -4943.5653   -3455.6432 
   54400    299.17661   -4969.5544            0   -4943.2964   -3568.5089 
   54500    306.56307   -4969.8328            0   -4942.9264   -3507.7457 
   54600     311.5292   -4970.1987            0   -4942.8565   -3448.1351 
   54700     298.9141   -4968.6402            0   -4942.4052   -3496.7847 
   54800    295.74895   -4968.1292            0    -4942.172   -3471.6168 
   54900    299.99592   -4968.0919            0    -4941.762    -3523.823 
   55000     306.8332   -4968.5323            0   -4941.6023   -3543.9951 
   55100    307.66702   -4968.2293            0   -4941.2261   -3530.2499 
   55200     307.5066   -4968.0787            0   -4941.0895   -3538.1063 
   55300    303.05282   -4967.2654            0   -4940.6672   -3532.4977 
   55400     296.5652    -4966.302            0   -4940.2732   -3546.9574 
   55500    292.29469   -4965.6731            0   -4940.0191   -3542.7562 
   55600     293.9694   -4965.7367            0   -4939.9357    -3535.943 
   55700    313.26593   -4966.8913            0   -4939.3967   -3609.3222 
   55800    290.40163   -4964.5739            0    -4939.086   -3649.2194 
   55900    308.65399   -4965.7126            0   -4938.6228   -3534.0154 
   56000    295.79195   -4964.3155            0   -4938.3545    -3564.546 
   56100     298.1005   -4964.4767            0   -4938.3132   -3594.3474 
   56200    307.54711   -4964.9049            0   -4937.9122   -3547.6495 
   56300    294.33623   -4963.2538            0   -4937.4206   -3532.3127 
   56400    297.79583   -4963.3521            0   -4937.2153   -3626.8665 
   56500     301.1237    -4963.332            0   -4936.9031   -3537.0162 
   56600    304.36906   -4963.4998            0   -4936.7861    -3565.481 
   56700     307.0719   -4963.1422            0   -4936.1912   -3660.2945 
   56800    295.45592   -4961.8296            0   -4935.8981   -3604.2199 
   56900    311.33698   -4962.9571            0   -4935.6317    -3532.667 
   57000    301.95977   -4961.6699            0   -4935.1676   -3649.1727 
   57100    309.02226   -4962.2662            0    -4935.144   -3643.7528 
   57200    309.48585   -4961.9646            0   -4934.8018   -3555.5233 
   57300    304.33668   -4961.1244            0   -4934.4135   -3680.8976 
   57400     293.4734   -4959.7323            0   -4933.9748    -3644.645 
   57500    286.72497   -4959.0029            0   -4933.8377   -3628.2768 
   57600    297.96865   -4959.5256            0   -4933.3736   -3680.9727 
   57700    298.82891   -4959.2034            0   -4932.9759    -3632.637 
   57800    308.56624   -4959.6671            0   -4932.5849   -3575.0045 
   57900    296.51019   -4958.6036            0   -4932.5796   -3685.8345 
   58000    303.71563   -4958.8086            0   -4932.1522    -3744.498 
   58100    291.93443     -4957.51            0   -4931.8876   -3565.8146 
   58200    299.64653   -4957.8548            0   -4931.5555   -3663.7427 
   58300    306.50736   -4958.1785            0    -4931.277   -3726.1036 
   58400    294.02314   -4956.9659            0   -4931.1602   -3628.5414 
   58500     296.5021   -4956.9006            0   -4930.8773   -3685.9628 
   58600    291.40151   -4955.9251            0   -4930.3495   -3734.6055 
   58700    296.35823   -4956.2286            0   -4930.2179   -3634.5631 
   58800    305.84304   -4956.4774            0   -4929.6342   -3696.9946 
   58900    303.95865    -4955.992            0   -4929.3143   -3791.3898 
   59000    301.96504   -4955.6196            0   -4929.1169   -3671.0855 
   59100    308.59522   -4955.7065            0   -4928.6218   -3697.6668 
   59200    298.30403   -4954.4664            0   -4928.2849    -3785.213 
   59300    304.33519   -4954.9967            0   -4928.2859   -3677.4556 
   59400    309.65115   -4954.9644            0   -4927.7871   -3736.4965 
   59500    292.41209   -4952.9774            0   -4927.3131    -3765.504 
   59600    309.04082   -4954.2074            0   -4927.0837   -3664.4424 
   59700    295.17715     -4952.67            0    -4926.763   -3708.9386 
   59800    311.19185   -4953.6809            0   -4926.3684   -3782.9439 
   59900     307.4915    -4953.092            0   -4926.1042   -3750.6626 
   60000    308.60538   -4952.9155            0   -4925.8299    -3684.503 
   60100    304.84265    -4952.189            0   -4925.4337   -3771.6878 
   60200    299.68892   -4951.6254            0   -4925.3224   -3763.7179 
   60300    303.92606   -4951.5367            0   -4924.8619   -3717.6487 
   60400     296.4853   -4950.6872            0   -4924.6654   -3832.1664 
   60500    287.98661   -4949.5317            0   -4924.2558   -3773.1718 
   60600    293.03977   -4949.4607            0   -4923.7413   -3758.9061 
   60700    301.48612   -4950.0953            0   -4923.6346   -3856.4672 
   60800    307.78371   -4950.1831            0   -4923.1696   -3790.2176 
   60900    303.90897   -4949.6339            0   -4922.9605   -3765.2581 
   61000     313.8095   -4950.1652            0   -4922.6229   -3795.0833 
   61100    308.25774   -4949.3196            0   -4922.2645   -3856.5186 
   61200    294.68596   -4947.8012            0   -4921.9373   -3775.4088 
   61300    302.60714    -4948.142            0   -4921.5829    -3781.562 
   61400    289.22437   -4946.6177            0   -4921.2331   -3868.3623 
   61500    303.50598   -4947.6611            0   -4921.0231    -3830.825 
   61600     297.3469   -4946.6618            0   -4920.5644   -3763.1004 
   61700    301.08225   -4946.7363            0    -4920.311   -3892.5501 
   61800    305.18774   -4946.5754            0   -4919.7898   -3839.7915 
   61900    299.26413    -4945.853            0   -4919.5873   -3792.8709 
   62000     291.9301   -4944.9943            0   -4919.3723   -3936.0673 
   62100    294.54513   -4944.8971            0   -4919.0456    -3854.165 
   62200    292.99484     -4944.33            0   -4918.6146   -3813.0925 
   62300     298.0327   -4944.4803            0   -4918.3226   -3883.9965 
   62400    300.07482   -4944.2062            0   -4917.8694   -3941.7777 
   62500    299.53869   -4943.8497            0   -4917.5599   -3789.7614 
   62600    304.33025   -4943.9695            0   -4917.2592   -3859.4831 
   62700    308.51413    -4944.016            0   -4916.9385   -3970.9813 
   62800    300.84921   -4942.8475            0   -4916.4427   -3840.5009 
   62900    303.62897   -4942.9994            0   -4916.3506   -3857.9351 
   63000    293.77078   -4941.7072            0   -4915.9237   -3964.8481 
   63100    301.71059   -4942.0662            0   -4915.5858   -3849.9018 
   63200    288.77926   -4940.7301            0   -4915.3847   -3830.5399 
   63300     299.2791   -4941.3086            0   -4915.0416   -3988.8842 
   63400    300.78924   -4941.2172            0   -4914.8176   -3847.1396 
   63500    292.09692   -4940.0613            0   -4914.4246   -3863.8825 
   63600    296.25183   -4940.1457            0   -4914.1444   -4003.6011 
   63700    292.49072   -4939.4089            0   -4913.7377   -3907.7585 
   63800    295.88203    -4939.237            0   -4913.2681   -3912.1667 
   63900    284.09962     -4937.82            0   -4912.8853   -4022.8659 
   64000    298.63526   -4938.8064            0   -4912.5959   -3902.9483 
   64100    306.83906   -4939.1271            0   -4912.1966   -3915.5277 
   64200    298.10514   -4938.0939            0   -4911.9299    -4037.706 
   64300    306.35556    -4938.468            0   -4911.5799   -3966.1692 
   64400    291.98145   -4936.8442            0   -4911.2177   -3891.2096 
   64500    306.61873   -4937.6481            0   -4910.7369    -4004.706 
   64600    295.72049   -4936.2717            0    -4910.317   -3995.1826 
   64700    307.06249   -4937.0737            0   -4910.1236   -3858.9753 
   64800    303.63668   -4936.4039            0   -4909.7545    -4008.609 
   64900    296.46498   -4935.3021            0   -4909.2821   -4012.2305 
   65000    297.64512   -4935.3356            0    -4909.212   -3863.9433 
   65100    305.56147    -4935.816            0   -4908.9975   -4033.2362 
   65200    295.55144   -4934.6406            0   -4908.7007   -4070.4497 
   65300    296.82287   -4934.3745            0   -4908.3231   -3904.4012 
   65400    298.07072   -4933.9632            0   -4907.8022   -4051.0749 
   65500    292.87093   -4933.2598            0   -4907.5552   -4098.3794 
   65600    305.14915    -4933.914            0   -4907.1318   -3885.1906 
   65700    300.00102   -4933.2508            0   -4906.9204   -4057.3745 
   65800    294.56042    -4932.359            0   -4906.5062   -4127.8705 
   65900    296.53316   -4932.4187            0   -4906.3927   -3942.8321 
   66000     310.2363   -4932.9264            0   -4905.6977   -4010.1826 
   66100    297.23703   -4931.4239            0   -4905.3361   -4131.3573 
   66200    295.95883   -4931.0997            0   -4905.1241   -4007.1163 
   66300    301.96499   -4931.1778            0   -4904.6751    -3967.781 
   66400    299.18404   -4930.5345            0   -4904.2758   -4126.8324 
   66500    303.90389    -4930.683            0   -4904.0101   -4054.4861 
   66600     300.7896   -4930.0676            0    -4903.668   -3987.2705 
   66700    292.00426   -4928.8489            0   -4903.2204   -4088.2196 
   66800    298.39462   -4929.0597            0   -4902.8704   -4072.0341 
   66900    297.66964   -4928.7861            0   -4902.6604   -4041.5557 
   67000    302.77309   -4928.8438            0   -4902.2702   -4125.8129 
   67100    298.16782    -4927.885            0   -4901.7156    -4091.198 
   67200    297.02962   -4927.5578            0   -4901.4882   -4058.8799 
   67300    302.58443   -4927.9706            0   -4901.4134   -4103.8016 
   67400    300.43085   -4927.1542            0   -4900.7861   -4118.5049 
   67500    305.41184   -4927.1358            0   -4900.3306    -4079.877 
   67600    300.16604   -4926.3393            0   -4899.9944   -4108.8712 
   67700    310.98358    -4927.322            0   -4900.0277   -4152.3484 
   67800    295.14568    -4925.292            0   -4899.3878   -4110.2039 
   67900    296.03614   -4925.0814            0    -4899.099      -4059.3 
   68000    300.37015   -4924.9965            0   -4898.6338   -4125.0836 
   68100    299.38501   -4924.8921            0   -4898.6157    -4124.779 
   68200     299.3284   -4924.2277            0   -4897.9563    -4106.929 
   68300    304.03938   -4924.4074            0   -4897.7226   -4157.5431 
   68400     302.7221   -4923.9986            0   -4897.4294    -4132.653 
   68500    293.20043   -4922.7248            0   -4896.9913     -4121.46 
   68600    295.71358   -4922.7169            0   -4896.7628   -4202.1908 
   68700    298.54692   -4922.4901            0   -4896.2874   -4147.5498 
   68800    306.68793   -4922.9459            0   -4896.0286   -4104.1057 
   68900    285.12351   -4920.7091            0   -4895.6845   -4192.3529 
   69000     293.6836   -4920.8097            0   -4895.0338   -4231.7841 
   69100    306.51474   -4921.5907            0   -4894.6886   -4103.3152 
   69200    316.22503    -4922.184            0   -4894.4297   -4217.7462 
   69300    308.05726   -4920.9842            0   -4893.9467    -4232.301 
   69400    299.76235   -4920.1475            0   -4893.8381   -4120.7095 
   69500    301.62428   -4920.0752            0   -4893.6024   -4205.5022 
   69600     296.9401   -4919.3365            0   -4893.2748   -4277.8473 
   69700    293.55625   -4918.5191            0   -4892.7544   -4120.3363 
   69800     298.7119    -4918.481            0   -4892.2637   -4148.2824 
   69900    312.19042   -4919.4451            0   -4892.0449   -4345.4211 
   70000    298.42736   -4917.7945            0   -4891.6022   -4171.7595 
   70100    297.76455   -4917.5348            0   -4891.4007   -4169.0486 
   70200    305.77148   -4917.8871            0   -4891.0502   -4311.5694 
   70300    294.20353   -4916.5991            0   -4890.7776   -4196.4534 
   70400    275.31094   -4914.6221            0   -4890.4587   -4178.4688 
   70500     286.7253   -4915.2925            0   -4890.1273    -4345.705 
   70600    297.40563   -4915.5432            0   -4889.4406   -4165.3283 
   70700    301.53311   -4915.5462            0   -4889.0814   -4161.6246 
   70800    299.12244   -4915.0013            0    -4888.748   -4366.8299 
   70900    294.17854   -4914.2207            0   -4888.4014   -4261.3504 
   71000    303.79955   -4914.8834            0   -4888.2196   -4167.9937 
   71100    293.16881   -4913.3227            0    -4887.592    -4309.256 
   71200    302.18094   -4913.6839            0   -4887.1622   -4306.9998 
   71300    305.13208   -4913.6592            0   -4886.8785   -4157.4344 
   71400    299.09152   -4912.8449            0   -4886.5943   -4348.6581 
   71500    301.62476   -4912.9071            0   -4886.4342   -4312.7434 
   71600    311.08054   -4913.2165            0   -4885.9137   -4140.9612 
   71700    300.47566   -4911.7716            0   -4885.3996   -4395.4907 
   71800    296.43515   -4911.4047            0   -4885.3873   -4342.6119 
   71900    286.64066   -4910.0123            0   -4884.8545   -4160.7678 
   72000    306.25688   -4911.3822            0   -4884.5028   -4362.3071 
   72100    294.99169    -4909.746            0   -4883.8553   -4402.1982 
   72200    303.84283   -4910.3833            0   -4883.7157   -4253.5318 
   72300    301.91126   -4909.6152            0   -4883.1172   -4376.1312 
   72400    312.34956   -4910.1747            0   -4882.7605   -4404.9435 
   72500    305.29931   -4909.3606            0   -4882.5652   -4228.4119 
   72600    296.31789   -4908.2804            0   -4882.2733   -4374.9689 
   72700    307.87666   -4908.8506            0    -4881.829   -4424.3385 
   72800    304.75209   -4908.5416            0   -4881.7942   -4234.1444 
   72900    299.31532   -4907.5996            0   -4881.3294   -4335.1779 
   73000    296.50329   -4906.6182            0   -4880.5948   -4490.5374 
   73100    293.69136   -4906.2768            0   -4880.5002   -4276.0106 
   73200    292.47028   -4905.6746            0   -4880.0051   -4270.6574 
   73300    299.12287   -4905.7196            0   -4879.4663   -4447.2914 
   73400    301.54749   -4905.6124            0   -4879.1463   -4310.1642 
   73500    293.53941   -4904.7242            0   -4878.9609   -4341.0351 
   73600    302.25694   -4905.1225            0   -4878.5941   -4470.2829 
   73700    310.44107   -4905.3475            0   -4878.1008   -4346.4926 
   73800    293.33916    -4903.572            0   -4877.8264   -4339.6229 
   73900    300.43625    -4903.748            0   -4877.3794   -4456.2593 
   74000    296.26873   -4903.1098            0    -4877.107   -4434.2618 
   74100     304.5693   -4903.3694            0   -4876.6381   -4356.0162 
   74200    290.75875   -4901.6458            0   -4876.1266   -4434.6384 
   74300    306.30223   -4902.7591            0   -4875.8757   -4449.8713 
   74400    302.08414   -4902.1704            0   -4875.6572   -4387.2181 
   74500    305.15988   -4901.8955            0   -4875.1124   -4429.9444 
   74600    307.51004   -4901.6509            0   -4874.6615   -4414.8881 
   74700    299.17536    -4900.715            0    -4874.457   -4403.2727 
   74800    310.96845   -4901.3374            0   -4874.0445   -4458.4923 
   74900     295.9825   -4899.5971            0   -4873.6195   -4460.1448 
   75000    299.07859    -4899.467            0   -4873.2176   -4414.1753 
   75100     287.4649   -4898.1088            0   -4872.8787   -4420.1448 
   75200      298.118   -4898.8105            0   -4872.6453   -4542.2713 
   75300    297.54459   -4898.1666            0   -4872.0518   -4443.4893 
   75400     301.7263   -4898.2578            0    -4871.776   -4398.7704 
   75500    300.98486   -4897.7881            0   -4871.3713   -4483.5086 
   75600    307.32936    -4897.895            0   -4870.9215   -4496.0615 
   75700    313.51913   -4898.1037            0   -4870.5868   -4451.3764 
   75800    305.26829   -4896.9835            0   -4870.1908   -4538.4775 
   75900    305.36636   -4896.6664            0   -4869.8651   -4486.3598 
   76000    306.08969   -4896.2443            0   -4869.3795   -4438.3653 
   76100    300.55221   -4895.5062            0   -4869.1274   -4533.5917 
   76200    308.26825   -4895.6894            0   -4868.6334   -4533.0705 
   76300    303.52743   -4895.1199            0     -4868.48   -4420.2973 
   76400    294.99443   -4893.8404            0   -4867.9494   -4516.6795 
   76500    297.80163   -4893.8056            0   -4867.6682   -4571.8354 
   76600    303.73769   -4893.7993            0    -4867.141   -4427.3374 
   76700    296.87375   -4893.0042            0   -4866.9483   -4458.6776 
   76800    295.74022   -4892.3843            0   -4866.4279   -4608.4362 
   76900    294.27294    -4891.895            0   -4866.0673   -4477.4556 
   77000    297.97157   -4891.9722            0   -4865.8199   -4513.1042 
   77100    284.29492    -4890.186            0   -4865.2341    -4627.346 
   77200    305.30006   -4891.7285            0    -4864.933   -4462.2152 
   77300    300.98408   -4890.8934            0   -4864.4767   -4497.0499 
   77400    297.41297   -4890.2965            0   -4864.1932   -4682.0479 
   77500    292.68608   -4889.4846            0   -4863.7962   -4554.7839 
   77600    294.37135   -4889.3233            0    -4863.487   -4466.7267 
   77700    286.35619   -4887.9276            0   -4862.7948   -4631.3297 
   77800    294.79495   -4888.3008            0   -4862.4273    -4579.542 
   77900     305.1393   -4889.1367            0   -4862.3554   -4441.1329 
   78000     300.6148   -4888.1757            0   -4861.7915    -4649.474 
   78100    300.71813   -4887.7887            0   -4861.3954   -4631.9379 
   78200    299.02555   -4887.3965            0   -4861.1517   -4435.9649 
   78300    301.17074    -4887.177            0    -4860.744   -4633.5804 
   78400    301.74886   -4886.7979            0   -4860.3141   -4639.4063 
   78500    312.96112   -4887.4273            0   -4859.9594   -4474.3753 
   78600    295.61844   -4885.6256            0   -4859.6798   -4629.6977 
   78700    289.23755   -4884.6485            0   -4859.2628    -4681.702 
   78800     302.6578   -4885.3719            0   -4858.8084   -4506.7579 
   78900    296.26548   -4884.4102            0   -4858.4077   -4692.5153 
   79000    303.81523   -4884.4094            0   -4857.7443   -4682.9891 
   79100    302.89266   -4884.0674            0   -4857.4832   -4495.5397 
   79200    298.28686   -4883.0287            0   -4856.8487   -4698.3582 
   79300    303.75218   -4883.4466            0    -4856.787    -4728.042 
   79400    285.75129   -4881.4215            0   -4856.3418   -4540.3925 
   79500    301.99809   -4882.5486            0   -4856.0429   -4654.7686 
   79600    305.84046   -4882.4455            0   -4855.6026   -4728.7752 
   79700    304.42528   -4882.0083            0   -4855.2896   -4570.0312 
   79800    303.06022   -4881.4908            0    -4854.892   -4565.8766 
   79900    295.61344    -4880.248            0   -4854.3027    -4721.712 
   80000    303.08241    -4880.761            0   -4854.1601   -4606.1281 
   80100    308.83646   -4880.7175            0   -4853.6117   -4608.3182 
   80200    294.01182   -4879.1565            0   -4853.3518   -4740.1327 
   80300    302.60868   -4879.3746            0   -4852.8154   -4685.3448 
   80400     290.1218   -4878.2215            0   -4852.7582   -4597.5968 
   80500    294.45375   -4878.1681            0   -4852.3246   -4781.7731 
   80600    294.59067   -4877.7631            0   -4851.9076   -4689.3044 
   80700    302.72504   -4878.0664            0    -4851.497   -4619.2532 
   80800     311.9807   -4878.3275            0   -4850.9456   -4796.2057 
   80900    297.53195   -4876.5119            0   -4850.3982   -4669.7891 
   81000    306.76468   -4876.9115            0   -4849.9874   -4579.0408 
   81100    292.16919   -4875.4093            0   -4849.7663   -4792.4719 
   81200    306.79565   -4876.3591            0   -4849.4324   -4748.7783 
   81300    296.15266   -4875.0643            0   -4849.0717   -4586.0521 
   81400    304.21336   -4875.4529            0   -4848.7528   -4747.4444 
   81500    297.13998   -4874.3265            0   -4848.2473   -4798.1259 
   81600    302.93054   -4874.0558            0   -4847.4683   -4663.2514 
   81700     300.1013    -4873.569            0   -4847.2298   -4739.4571 
   81800     297.1297   -4872.9891            0   -4846.9107   -4772.3386 
   81900    309.31855    -4873.341            0   -4846.1929   -4740.5703 
   82000    309.51681   -4873.0402            0   -4845.8747   -4740.3348 
   82100    294.99433    -4871.804            0    -4845.913   -4756.0814 
   82200     295.1813   -4871.3998            0   -4845.4924   -4792.5582 
   82300     293.4891   -4870.6899            0    -4844.931   -4726.3475 
   82400    296.48553   -4870.3774            0   -4844.3556   -4766.2469 
   82500    306.20827   -4870.7565            0   -4843.8813   -4745.8913 
   82600    304.78677   -4870.3348            0   -4843.5844    -4773.615 
   82700    295.93541   -4869.1303            0   -4843.1568   -4845.7158 
   82800    311.19563   -4870.2148            0   -4842.9019   -4821.7995 
   82900    307.55349   -4869.4522            0   -4842.4589   -4734.4356 
   83000    302.60692   -4868.6009            0   -4842.0418   -4817.0112 
   83100    298.21603    -4867.863            0   -4841.6893   -4829.8527 
   83200    299.30604   -4867.6682            0   -4841.3988   -4740.1367 
   83300    290.03053    -4866.285            0   -4840.8297   -4839.9269 
   83400    307.20148   -4867.6345            0   -4840.6722   -4859.0499 
   83500    296.80645   -4866.2572            0   -4840.2071   -4782.1161 
   83600    295.78811    -4865.453            0   -4839.4923   -4832.7282 
   83700    296.45457     -4865.21            0   -4839.1908   -4858.8825 
   83800    300.49158   -4865.2961            0   -4838.9227   -4795.7276 
   83900    300.51459   -4864.6896            0   -4838.3142   -4799.2021 
   84000    299.60427   -4864.2386            0    -4837.943   -4850.2691 
   84100    292.88262   -4863.3635            0   -4837.6578    -4821.546 
   84200    295.32912    -4863.153            0   -4837.2326   -4812.8612 
   84300    298.28526   -4863.0003            0   -4836.8205   -4844.9611 
   84400    297.98449   -4862.5709            0   -4836.4175   -4860.2674 
   84500     303.2041   -4862.6006            0   -4835.9891    -4831.728 
   84600    302.50201   -4862.0169            0    -4835.467   -4916.4665 
   84700      299.114   -4861.5825            0   -4835.3299   -4850.1846 
   84800    296.71332   -4860.8011            0   -4834.7592   -4781.6461 
   84900    303.66601   -4861.0762            0   -4834.4241   -4890.4278 
   85000    296.39987   -4859.9792            0   -4833.9649   -4896.5464 
   85100    298.71333    -4859.882            0   -4833.6646   -4791.4614 
   85200    296.12631   -4859.3341            0   -4833.3438   -4884.2932 
   85300    301.19169   -4859.0732            0   -4832.6383   -4859.9925 
   85400    299.88798   -4858.5992            0   -4832.2787   -4832.6307 
   85500    308.53067   -4859.3238            0   -4832.2448   -5005.6411 
   85600    297.70515   -4857.7334            0   -4831.6045   -4940.2601 
   85700    301.92045   -4857.7365            0   -4831.2377   -4807.6088 
   85800    289.04851    -4855.949            0   -4830.5799   -4908.1179 
   85900    292.20016   -4856.0471            0   -4830.4013   -4986.8081 
   86000    303.67098   -4856.4798            0   -4829.8274   -4793.0214 
   86100    293.50522   -4855.2872            0   -4829.5269   -4930.9917 
   86200    297.67262   -4855.1205            0   -4828.9945   -5006.1604 
   86300    299.72307   -4854.9982            0   -4828.6922   -4840.7851 
   86400    304.92542   -4854.9943            0   -4828.2318   -4899.7331 
   86500    301.04115   -4854.2351            0   -4827.8134   -4995.3095 
   86600    308.58965    -4854.537            0   -4827.4529   -4900.4682 
   86700    307.43914   -4853.9646            0   -4826.9814   -4900.1378 
   86800    285.74156   -4851.5657            0   -4826.4868    -4974.278 
   86900    293.35605   -4851.8606            0   -4826.1134   -4902.1382 
   87000     303.8561   -4852.3627            0    -4825.694    -4883.431 
   87100    284.35257    -4850.494            0    -4825.537   -5039.0457 
   87200    304.65906   -4851.6058            0   -4824.8666   -4954.8077 
   87300    296.85544   -4850.8177            0   -4824.7634    -4834.928 
   87400    290.17891   -4849.5708            0   -4824.1025   -5026.9112 
   87500    295.81113   -4849.4356            0    -4823.473    -4977.893 
   87600    300.10165   -4849.4106            0   -4823.0714   -4923.7195 
   87700    300.33485    -4849.036            0   -4822.6764   -5048.9485 
   87800    290.15124   -4847.8088            0   -4822.3429   -4993.9425 
   87900    305.52804   -4848.7106            0   -4821.8951   -4915.4864 
   88000    314.95518   -4849.2461            0   -4821.6032   -5078.3034 
   88100    302.55096   -4847.8167            0   -4821.2626   -5047.4269 
   88200    298.22227   -4846.9304            0   -4820.7561   -4941.6663 
   88300    295.77192   -4846.5485            0   -4820.5893   -5014.8975 
   88400    302.53579   -4846.5755            0   -4820.0226   -5036.1569 
   88500    293.48864   -4845.3863            0   -4819.6275   -4962.9038 
   88600    311.16525    -4846.342            0   -4819.0317     -5039.93 
   88700    304.03013   -4845.1385            0   -4818.4545   -5052.8737 
   88800     298.2146    -4844.668            0   -4818.4944   -4968.9078 
   88900    305.62638   -4844.6601            0   -4817.8359   -5045.5707 
   89000    303.08991   -4844.0884            0   -4817.4869   -5060.2006 
   89100    294.35273   -4842.9103            0   -4817.0757   -4959.1629 
   89200    301.39585   -4843.0092            0   -4816.5564   -5039.4583 
   89300    303.13999   -4842.8766            0   -4816.2707   -5114.5373 
   89400    300.47532   -4842.3751            0   -4816.0031   -4977.4905 
   89500    301.19073   -4841.5368            0    -4815.102   -4998.7189 
   89600    302.33408   -4841.1492            0   -4814.6141   -5163.2829 
   89700    309.10786    -4841.652            0   -4814.5223   -5031.8185 
   89800    309.09505   -4841.1763            0   -4814.0478   -5019.1845 
   89900    299.01997   -4839.8481            0   -4813.6038   -5088.1009 
   90000    299.11475   -4839.5786            0    -4813.326   -5032.9792 
   90100    292.36061   -4838.3805            0   -4812.7207   -5046.9304 
   90200    302.48963   -4838.7734            0   -4812.2246   -5145.6446 
   90300    288.45518   -4837.1648            0   -4811.8478   -5082.1527 
   90400    301.44852   -4837.8465            0   -4811.3891   -5031.0569 
   90500    297.39054    -4837.168            0   -4811.0667   -5128.7885 
   90600    294.99657   -4836.6082            0   -4810.7171   -5076.3264 
   90700    312.60048   -4837.7569            0   -4810.3207   -5100.8857 
   90800    295.50368    -4836.039            0   -4810.1033   -5109.2754 
   90900    294.16148   -4835.4126            0   -4809.5948   -5122.2266 
   91000    293.27389   -4834.6997            0   -4808.9597    -5114.118 
   91100    303.36916   -4834.9737            0   -4808.3477   -5135.9859 
   91200    300.24588   -4834.2423            0   -4807.8904   -5152.3112 
   91300    299.45022   -4833.9623            0   -4807.6803   -5117.3224 
   91400    302.50053   -4833.6669            0   -4807.1171   -5090.2989 
   91500     306.4786   -4833.8266            0   -4806.9277   -5163.6686 
   91600    300.10306   -4832.5594            0   -4806.2201   -5146.5589 
   91700     293.4819   -4831.6413            0   -4805.8831   -5064.4797 
   91800    295.99777   -4831.7221            0   -4805.7431   -5168.8955 
   91900     296.5643   -4831.0175            0   -4804.9887   -5211.0255 
   92000    298.73092   -4830.8136            0   -4804.5947   -5068.5408 
   92100    298.57834   -4830.3225            0    -4804.117   -5153.6767 
   92200    290.55799   -4829.3065            0   -4803.8049    -5216.827 
   92300    309.53966   -4830.7034            0   -4803.5358   -5095.5204 
   92400     306.8336   -4829.8961            0   -4802.9661   -5138.6557 
   92500    301.65154   -4829.1921            0   -4802.7168     -5279.28 
   92600    301.00255    -4828.537            0   -4802.1187   -5099.6153 
   92700    296.66926   -4827.4216            0   -4801.3836   -5111.3076 
   92800    291.75067   -4826.9258            0   -4801.3196   -5225.6633 
   92900    293.29969   -4826.3806            0   -4800.6384   -5172.6321 
   93000    310.88493   -4827.5874            0   -4800.3017   -5150.3573 
   93100    303.62213   -4826.6704            0   -4800.0222   -5243.5494 
   93200    307.50572   -4826.5801            0   -4799.5911   -5187.6358 
   93300    292.54703   -4824.6841            0   -4799.0079   -5143.6578 
   93400    299.71437   -4824.9197            0   -4798.6145   -5260.0516 
   93500    308.49295   -4825.1946            0   -4798.1189   -5168.5879 
   93600    296.82514   -4823.7382            0   -4797.6866   -5121.1229 
   93700    298.61755   -4823.6051            0   -4797.3962   -5274.2103 
   93800    295.92903   -4822.6809            0   -4796.7079   -5235.7181 
   93900    295.79432   -4822.1872            0    -4796.226   -5128.2953 
   94000    297.86175   -4822.1513            0   -4796.0087   -5314.5929 
   94100    294.69582   -4821.4357            0   -4795.5709   -5292.6792 
   94200    303.40799   -4821.9789            0   -4795.3495   -5166.2205 
   94300    305.34468    -4821.665            0   -4794.8656   -5266.4833 
   94400    295.93457   -4820.3793            0   -4794.4058   -5307.1105 
   94500    305.18163   -4820.9336            0   -4794.1485   -5172.2521 
   94600    287.89442   -4818.6165            0   -4793.3487   -5258.7355 
   94700    296.03189   -4818.8768            0   -4792.8947   -5334.6896 
   94800    288.10903    -4817.777            0   -4792.4903   -5233.6677 
   94900    299.40286   -4818.5845            0   -4792.3066   -5232.8088 
   95000     291.2939   -4817.0992            0    -4791.533   -5330.2988 
   95100      310.567   -4818.1733            0   -4790.9156   -5180.8094 
   95200    292.63695    -4816.326            0   -4790.6419   -5198.8348 
   95300    291.91697   -4815.7498            0   -4790.1289   -5385.5813 
   95400    297.76694     -4815.84            0   -4789.7057   -5247.9232 
   95500     280.1221   -4814.0322            0   -4789.4466   -5233.5324 
   95600    294.93072   -4814.8498            0   -4788.9645   -5390.0596 
   95700    291.09115   -4814.0953            0   -4788.5469   -5245.8086 
   95800    298.25958   -4814.2976            0   -4788.1201   -5159.4318 
   95900    294.51618   -4813.6379            0   -4787.7889   -5387.3663 
   96000    297.09262   -4813.3785            0   -4787.3034   -5316.8898 
   96100     300.4795   -4813.2132            0   -4786.8408   -5148.8325 
   96200    297.45831   -4812.4375            0   -4786.3303   -5369.3552 
   96300    282.75209   -4810.8399            0   -4786.0234   -5363.3265 
   96400    306.79103   -4812.6155            0   -4785.6891   -5197.7502 
   96500    293.05807   -4810.6958            0   -4784.9748   -5366.3827 
   96600    303.54798   -4811.2312            0   -4784.5895   -5396.1666 
   96700    280.62947   -4808.7256            0   -4784.0954   -5196.3764 
   96800    301.33427   -4810.4472            0   -4783.9998    -5343.029 
   96900    300.98813   -4809.7688            0   -4783.3518   -5413.7393 
   97000    310.40143   -4810.3222            0    -4783.079   -5283.3861 
   97100    291.44015   -4808.0722            0   -4782.4932   -5341.4286 
   97200    301.02106   -4808.3833            0   -4781.9634   -5410.3735 
   97300    316.32523   -4809.3031            0     -4781.54   -5266.6781 
   97400    303.51843   -4807.8309            0   -4781.1918   -5319.3615 
   97500    300.01361   -4807.0185            0    -4780.687   -5378.5605 
   97600    298.39956   -4806.4085            0   -4780.2187   -5365.7265 
   97700    298.84225   -4806.1631            0   -4779.9344   -5277.6364 
   97800    293.57871   -4805.2406            0   -4779.4739   -5429.1412 
   97900    303.06955   -4805.6076            0   -4779.0079   -5364.2032 
   98000    292.60474   -4804.1398            0   -4778.4585   -5349.3212 
   98100    300.90255   -4804.2407            0   -4777.8312   -5351.4165 
   98200    307.03751   -4804.5057            0   -4777.5578   -5388.8411 
   98300    304.71296   -4803.7636            0   -4777.0196   -5390.6916 
   98400    308.91921   -4803.7491            0    -4776.636   -5367.6744 
   98500    298.66516    -4802.502            0   -4776.2888   -5380.3161 
   98600    298.59046   -4801.9931            0   -4775.7865    -5427.936 
   98700    311.61848   -4802.8547            0   -4775.5047   -5426.8489 
   98800    297.59066   -4801.0416            0   -4774.9228   -5456.8257 
   98900    311.79583   -4801.8914            0   -4774.5258   -5404.6664 
   99000    297.01981   -4800.1605            0   -4774.0918   -5405.9043 
   99100    294.12251   -4799.4129            0   -4773.5985   -5415.2477 
   99200    300.28508   -4799.5591            0   -4773.2038   -5361.0409 
   99300    304.89301   -4799.6218            0   -4772.8621   -5418.5445 
   99400    308.82797     -4799.45            0   -4772.3449   -5439.5509 
   99500    295.83772    -4797.856            0   -4771.8911   -5452.6694 
   99600    300.83497   -4797.8762            0   -4771.4727   -5395.9062 
   99700    311.01052   -4798.2982            0   -4771.0015   -5414.8064 
   99800    294.02917   -4796.4146            0   -4770.6084   -5436.7658 
   99900    291.06511   -4795.3813            0   -4769.8352   -5453.0011 
  100000     306.0454   -4796.3113            0   -4769.4504    -5438.257 
  100100    299.52062   -4795.2939            0   -4769.0057   -5432.7733 
  100200    292.86579   -4794.2449            0   -4768.5407   -5418.9726 
  100300    300.27279   -4794.5356            0   -4768.1814   -5460.0847 
  100400     287.5664   -4792.8288            0   -4767.5898    -5506.258 
  100500    294.97751   -4793.2204            0   -4767.3309   -5435.5561 
  100600    296.95521    -4793.153            0     -4767.09   -5451.4294 
  100700      301.267   -4792.8733            0   -4766.4318   -5529.0749 
[...]
  260200    306.92996   -4991.5364            0   -4964.5978    163.85489 
  260300    294.02721   -4990.6704            0   -4964.8643    -26.70822 
  260400    306.08296   -4992.0572            0    -4965.193    157.74346 
  260500    304.71238   -4992.6201            0   -4965.8762    290.57608 
  260600    310.73549   -4992.7339            0   -4965.4613    163.05018 
  260700    313.31128   -4994.0785            0   -4966.5799    183.98343 
  260800    306.82247   -4989.5746            0   -4962.6455    254.03989 
  260900    290.65658   -4989.5723            0   -4964.0621   -18.240916 
  261000    289.04608   -4993.2874            0   -4967.9185    145.20927 
  261100    286.98749   -4988.1439            0   -4962.9557    172.30614 
  261200    288.97199    -4988.368            0   -4963.0056   -68.849576 
  261300    286.20669   -4988.4864            0   -4963.3667    -88.74973 
  261400    295.75634   -4989.5855            0   -4963.6277    86.011615 
  261500    298.49091   -4989.2574            0   -4963.0596   -232.68714 
  261600    307.72469   -4992.8186            0   -4965.8103   -139.67647 
  261700    297.45207   -4989.9758            0   -4963.8691   -68.396962 
  261800    304.98775   -4990.9173            0   -4964.1493   -258.82109 
  261900    301.77329    -4990.426            0   -4963.9401   -241.16433 
  262000    298.61258   -4993.3101            0   -4967.1016   -42.640346 
  262100    300.24167   -4991.3226            0   -4964.9711   -240.29946 
  262200    295.11864   -4990.3843            0   -4964.4824   -159.50878 
  262300    294.20794   -4991.0374            0   -4965.2154    15.032295 
  262400    292.46003   -4991.0915            0    -4965.423    -139.3628 
  262500    297.38081    -4990.148            0   -4964.0475   -104.01734 
  262600    296.44272   -4986.6559            0   -4960.6378     129.2194 
  262700    300.07526   -4990.8335            0   -4964.4966    79.592049 
  262800    305.89855    -4992.368            0     -4965.52    -7.214171 
  262900    308.35699   -4990.7903            0   -4963.7265    288.20175 
  263000    314.78724    -4993.112            0   -4965.4838    82.100112 
  263100     296.9712   -4990.8612            0   -4964.7968    1.5431285 
  263200    302.67256   -4994.4272            0   -4967.8624    231.10093 
  263300    304.10979   -4992.1711            0   -4965.4801    101.32764 
  263400    291.96794   -4989.3947            0   -4963.7693   -7.2653446 
  263500    287.97041   -4991.6705            0    -4966.396    93.493106 
  263600    293.20521   -4990.9948            0   -4965.2609    65.886612 
  263700    290.25011   -4989.6108            0   -4964.1362   -11.167187 
  263800    285.22764   -4991.2738            0     -4966.24   -23.891021 
  263900    313.10773   -4993.9718            0   -4966.4911   -112.00281 
  264000    293.09461   -4989.9327            0   -4964.2085   -133.44775 
  264100     289.0234   -4990.0612            0   -4964.6943   -84.769856 
  264200    292.84863   -4991.0933            0   -4965.3907   -253.75718 
  264300    312.26691   -4993.0793            0   -4965.6724   -201.76957 
  264400    314.90065   -4992.5905            0   -4964.9524   -104.85145 
  264500    299.17273    -4990.735            0   -4964.4773   -109.95667 
  264600    298.69063   -4991.5824            0   -4965.3671   -31.102835 
  264700    284.99915   -4990.9513            0   -4965.9376   -55.580838 
  264800    285.21501   -4988.1242            0   -4963.0916   -9.3070198 
  264900    290.51079   -4990.2521            0   -4964.7547   -72.668842 
  265000    284.15521   -4988.5081            0   -4963.5684     15.17298 
  265100    303.16127   -4989.8906            0   -4963.2829    91.560052 
  265200    303.73229   -4992.6823            0   -4966.0244    81.290855 
  265300    313.99038   -4993.4776            0   -4965.9194    162.10384 
  265400    299.73621   -4992.7327            0   -4966.4256    159.85124 
  265500    315.81534   -4992.7305            0   -4965.0122    49.401834 
  265600    298.28194    -4989.682            0   -4963.5025    141.49383 
  265700    294.98759   -4991.6393            0    -4965.749    49.566266 
  265800    298.19941   -4993.0017            0   -4966.8295    4.6682434 
  265900    303.11795   -4989.8872            0   -4963.2833    16.078069 
  266000    294.88969   -4989.8712            0   -4963.9894     -25.0759 
  266100    292.36498   -4992.1967            0   -4966.5366   -92.301026 
  266200    289.65588   -4989.6982            0   -4964.2758    32.183524 
  266300     299.5054   -4990.2397            0   -4963.9528   -82.429252 
  266400    316.34176   -4996.0762            0   -4968.3116   -171.50455 
  266500    304.44662   -4993.3263            0   -4966.6057    23.561332 
  266600    303.76258   -4991.3188            0   -4964.6582   -188.35745 
  266700    300.68965   -4995.4001            0   -4969.0093    -143.4108 
  266800    291.56814   -4991.6342            0    -4966.044   -140.25435 
  266900     310.7948   -4994.3156            0   -4967.0379   -95.795886 
  267000    304.42333   -4992.7591            0   -4966.0405   -171.16756 
  267100    291.39603   -4995.4239            0   -4969.8487    20.306131 
  267200    300.89576   -4991.6435            0   -4965.2346   -89.744298 
  267300    302.64966   -4991.9978            0    -4965.435     40.90075 
  267400     298.2897   -4992.7625            0   -4966.5823    174.65099 
  267500    309.01671   -4990.6914            0   -4963.5698    72.013533 
  267600    297.36129   -4993.6596            0   -4967.5609    98.685177 
  267700    303.38409   -4992.4886            0   -4965.8613   -13.809836 
  267800    299.83541    -4994.004            0   -4967.6881   -66.278246 
  267900    301.54427   -4993.7218            0   -4967.2559    97.920908 
  268000    300.13797   -4994.1396            0   -4967.7972    95.341315 
  268100    298.48857   -4993.9474            0   -4967.7497    62.923982 
  268200     290.5135    -4991.454            0   -4965.9563    50.009496 
  268300    295.25441   -4990.6707            0   -4964.7569    2.3695543 
  268400    283.64257   -4993.5844            0   -4968.6898   -115.50694 
  268500    294.20059   -4990.8115            0   -4964.9902   -81.765598 
  268600    304.00153   -4989.4328            0   -4962.7513   -186.14039 
  268700    296.99147   -4993.2558            0   -4967.1895   -147.92566 
  268800    298.14108   -4991.5255            0   -4965.3583   -59.244255 
  268900    311.35659   -4993.8136            0   -4966.4865   -15.827251 
  269000    312.78928    -4993.204            0   -4965.7513   -39.943149 
  269100    308.12655   -4991.0705            0    -4964.027   -39.442715 
  269200    320.03966   -4994.4137            0   -4966.3246    -40.99928 
  269300    287.72143   -4993.1854            0   -4967.9328   -83.657718 
  269400    324.25281   -4993.9954            0   -4965.5365   -30.582491 
  269500    286.27005   -4991.8988            0   -4966.7735   -87.814254 
  269600    295.20129   -4994.4261            0    -4968.517   -38.015156 
  269700    286.28196   -4993.1272            0   -4968.0009    59.850779 
  269800    283.58687   -4995.1001            0   -4970.2104    7.4606079 
  269900    306.66822   -4993.0637            0   -4966.1482    51.463781 
  270000    301.07682   -4993.5416            0   -4967.1168    135.26059 
  270100    300.00569   -4995.9495            0   -4969.6187   -56.829484 
  270200    306.63272   -4995.2536            0   -4968.3412   -87.730524 
  270300    297.28781    -4992.415            0   -4966.3227   -1.8561009 
  270400     297.2246   -4995.2466            0   -4969.1599   -81.469884 
  270500    307.30635   -4993.3496            0    -4966.378   -33.713426 
  270600    293.92763   -4992.9408            0   -4967.1435    36.722368 
  270700    289.22491   -4992.1613            0   -4966.7767    84.085452 
  270800    298.27036   -4991.7484            0   -4965.5699   -31.709841 
  270900    287.40784   -4988.5846            0   -4963.3595   -22.714236 
  271000    316.51979   -4992.9478            0   -4965.1676   -35.752795 
  271100     304.7805    -4994.575            0   -4967.8251   -75.944513 
  271200    301.16463   -4996.9152            0   -4970.4827   -27.066599 
  271300    309.55339   -4993.7169            0   -4966.5482   -68.332947 
  271400    300.54516   -4996.5423            0   -4970.1641    57.377198 
  271500    311.73218   -4995.4731            0   -4968.1131   -11.336418 
  271600     298.3675   -4993.9274            0   -4967.7404    84.994444 
  271700    305.01978   -4992.1494            0   -4965.3786    18.144775 
  271800    298.06644   -4994.3986            0    -4968.238   -61.094516 
  271900    292.07492   -4993.9161            0   -4968.2814   -149.92059 
  272000    286.74894   -4992.5582            0   -4967.3909   -72.705624 
  272100     290.3345   -4990.1183            0   -4964.6363   -38.435458 
  272200    293.03327    -4995.424            0   -4969.7052   -115.35823 
  272300    291.04781   -4994.0458            0   -4968.5012    12.863786 
  272400    306.65304   -4995.5181            0   -4968.6039    18.880929 
  272500     315.8274   -4994.9127            0   -4967.1932    131.52247 
  272600     302.4315   -4994.5211            0   -4967.9774   -49.324321 
  272700    278.05351   -4992.2059            0   -4967.8018    62.228803 
  272800    304.22338   -4996.6743            0   -4969.9733   -20.301789 
  272900    285.05899   -4991.3402            0   -4966.3213   -67.142868 
  273000    286.76558   -4995.3978            0   -4970.2291   -54.857865 
  273100    299.26122   -4993.6831            0   -4967.4176    104.57106 
  273200     288.8395     -4995.21            0   -4969.8592   -34.755562 
  273300     298.5705   -4993.7911            0   -4967.5863    6.9863792 
  273400    304.10238   -4993.9897            0   -4967.2994    46.385579 
  273500    291.40373    -4992.988            0   -4967.4122    4.5464357 
  273600    308.05577   -4993.0716            0   -4966.0343    -13.93305 
  273700    309.22324   -4992.2815            0   -4965.1417   -7.7096305 
  273800    297.16928   -4993.8864            0   -4967.8045    -16.29887 
  273900    295.07444   -4990.5841            0   -4964.6861   -88.077097 
  274000    303.77113   -4992.6407            0   -4965.9794    155.96099 
  274100    286.91938   -4992.2449            0   -4967.0626   -66.598904 
  274200    288.58176   -4989.4216            0   -4964.0935     32.69311 
  274300    294.83496   -4991.5173            0   -4965.6403    71.112845 
  274400    290.81292   -4992.9675            0   -4967.4435   -69.491364 
  274500     315.2605   -4991.7956            0   -4964.1259   -62.426984 
  274600    310.62352   -4992.5822            0   -4965.3195    38.501494 
  274700    297.57541   -4991.1814            0   -4965.0639   -27.019123 
  274800    315.15803   -4994.2635            0   -4966.6028   -65.534466 
  274900      329.788   -4993.3352            0   -4964.3905    100.99165 
  275000    302.49629   -4990.9119            0   -4964.3625    135.28611 
  275100    304.74254   -4992.1752            0   -4965.4287   -60.000914 
  275200    308.88027   -4992.9257            0    -4965.816    204.47876 
  275300     293.2532   -4991.1172            0    -4965.379    12.953186 
  275400    314.68594    -4993.826            0   -4966.2068   -44.880818 
  275500    303.41425   -4990.8598            0   -4964.2299    1.8840455 
  275600    299.91263   -4992.5855            0   -4966.2629   -65.553639 
  275700    302.50676    -4992.513            0   -4965.9627   -112.22062 
  275800    294.46046   -4990.6659            0   -4964.8218   -13.699577 
  275900    294.77271   -4990.8901            0   -4965.0186   -101.41962 
  276000    307.33336   -4991.7257            0   -4964.7518   -13.967924 
  276100    304.18232   -4992.0014            0   -4965.3041    106.06156 
  276200    307.79831   -4992.0971            0   -4965.0823     84.88899 
  276300    312.96743   -4992.1425            0   -4964.6741    91.656219 
  276400    311.41827   -4993.6847            0   -4966.3523    46.941473 
  276500    308.48223   -4992.7784            0   -4965.7036    119.57172 
  276600    309.26331     -4991.43            0   -4964.2867   -68.941175 
  276700    304.42208    -4991.612            0   -4964.8936    43.441755 
  276800    291.69228   -4991.7994            0   -4966.1982   -18.679117 
  276900    296.95207   -4990.9142            0   -4964.8514   -137.52184 
  277000    302.29113   -4990.5387            0   -4964.0073    20.539578 
  277100    311.73795   -4995.2457            0   -4967.8852   -30.068889 
  277200    312.30792   -4992.8289            0   -4965.4184   -87.853286 
  277300    298.51162   -4992.2236            0    -4966.024   -119.56179 
  277400    303.02214    -4993.008            0   -4966.4125    7.8381692 
  277500       294.81    -4992.267            0   -4966.3923   -64.557087 
  277600    283.89849    -4990.347            0   -4965.4299   -114.65159 
  277700    305.86137   -4993.3498            0   -4966.5051    45.457096 
  277800    315.30201   -4991.5491            0   -4963.8757   -88.142022 
  277900    282.31315    -4989.712            0    -4964.934   -34.751204 
  278000    309.44347   -4992.7421            0    -4965.583   -8.1365529 
  278100    319.85967    -4993.685            0   -4965.6116   -37.457414 
  278200    316.66259   -4993.0941            0   -4965.3013   0.10347623 
  278300    306.00851   -4991.4933            0   -4964.6357    67.304675 
  278400    309.89693   -4993.9776            0   -4966.7786    126.33639 
  278500    299.31863   -4991.4515            0    -4965.181    124.71965 
  278600    306.35706   -4992.8454            0   -4965.9572    186.59698 
  278700    287.18974   -4992.1365            0   -4966.9305    14.999234 
  278800    292.56869   -4993.1447            0   -4967.4666    44.087884 
  278900    298.38067   -4990.6309            0   -4964.4427    18.321201 
  279000    296.48344   -4992.7383            0   -4966.7167   -19.336386 
  279100    304.96453   -4991.2546            0   -4964.4886   -33.961256 
  279200    287.84156   -4990.3976            0   -4965.1345   -40.409999 
  279300    287.37577   -4991.0465            0   -4965.8242   -73.260976 
  279400    292.28212   -4991.9211            0   -4966.2682    -97.12771 
  279500    304.46934   -4991.1866            0   -4964.4641    -97.85078 
  279600     297.4325   -4992.1063            0   -4966.0013   -158.11418 
  279700    303.97586   -4990.9304            0   -4964.2512   -143.32786 
  279800    305.47387   -4991.4398            0   -4964.6291   -68.971309 
  279900    296.01264   -4993.0678            0   -4967.0874   -165.49986 
  280000    284.91809   -4992.9249            0   -4967.9183   -49.522811 
  280100    295.48599   -4991.4792            0    -4965.545   -4.2052556 
  280200    294.92869   -4992.0188            0   -4966.1336   -35.646092 
  280300    293.85699   -4991.4188            0   -4965.6276    4.9309045 
  280400    313.80085   -4992.3696            0    -4964.828   -32.004744 
  280500    300.84866   -4991.7425            0   -4965.3377    9.7997734 
  280600    291.97029    -4992.443            0   -4966.8174    40.918195 
  280700    302.52005   -4992.0412            0   -4965.4898    75.287464 
  280800     310.8463   -4994.4724            0   -4967.1901    202.12006 
  280900    303.85774   -4991.6251            0   -4964.9562    180.18336 
  281000    297.49837   -4991.2627            0   -4965.1519    197.27728 
  281100     288.6651    -4991.238            0   -4965.9025    115.57613 
  281200    302.31931   -4992.8129            0   -4966.2791    102.61716 
  281300    300.17699   -4991.8682            0   -4965.5224    52.060755 
  281400    301.15125   -4991.7774            0   -4965.3461   -107.17962 
  281500    295.25116   -4991.0536            0   -4965.1401   -11.146369 
  281600    305.60979   -4991.8596            0   -4965.0369   -79.944457 
  281700    286.56449   -4989.1898            0   -4964.0387   -65.961379 
  281800    288.15132   -4991.2643            0   -4965.9739   -86.550131 
  281900    300.29107   -4991.0327            0   -4964.6768   -121.27736 
  282000    296.20008   -4991.0259            0   -4965.0291   -177.58972 
  282100    296.75987   -4991.2918            0   -4965.2459   -210.33318 
  282200    300.06548   -4991.8255            0   -4965.4895   -115.89908 
  282300    289.94149    -4990.627            0   -4965.1796   -149.42483 
  282400    292.74521    -4991.258            0   -4965.5644   -142.73316 
  282500    288.74418   -4990.8282            0   -4965.4858    22.585549 
  282600    293.70777   -4990.5154            0   -4964.7374   -18.673567 
  282700    300.22408   -4991.2886            0   -4964.9386   -14.737501 
  282800    303.91853   -4991.8084            0   -4965.1342    49.508365 
  282900    306.48682   -4991.8631            0   -4964.9635    70.307222 
  283000    291.32168   -4990.1477            0   -4964.5791    79.868543 
  283100    310.31707   -4991.8937            0   -4964.6579    196.11139 
  283200    318.36504   -4992.7621            0   -4964.8199    46.524855 
  283300    300.85909   -4992.6858            0   -4966.2802    113.47478 
  283400    291.25622   -4990.2727            0   -4964.7098    228.57949 
  283500    294.96015   -4991.7416            0   -4965.8536    181.06283 
  283600    303.69631   -4990.3956            0   -4963.7409    17.717202 
  283700     300.6758   -4992.3876            0    -4965.998   -25.871259 
  283800    290.38886   -4990.8037            0   -4965.3169   -52.927715 
  283900     298.8127   -4992.5338            0   -4966.3077   -116.70487 
  284000    304.78672   -4992.9932            0   -4966.2428   -68.062007 
  284100    313.24973   -4991.9004            0   -4964.4072   -202.56193 
  284200    292.75235   -4991.4891            0   -4965.7949   -121.69675 
  284300     297.0948   -4991.2202            0   -4965.1448   -65.410341 
  284400    291.69717   -4992.5109            0   -4966.9094   -118.58397 
  284500    306.89472   -4990.5646            0   -4963.6292   -154.65408 
  284600    302.24888   -4993.3288            0   -4966.8011    14.726852 
  284700    294.95643   -4991.4229            0   -4965.5353   -167.91679 
  284800    302.43596   -4990.8294            0   -4964.2853   -116.36654 
  284900    305.79798    -4991.848            0   -4965.0088   -41.194288 
  285000     289.5133   -4991.9211            0   -4966.5112    49.778545 
Loop time of 777.709 on 4 procs for 280000 steps with 700 atoms

Performance: 15.553 ns/day, 1.543 hours/ns, 360.032 timesteps/s
99.9% CPU use with 4 MPI tasks x 1 OpenMP threads

MPI task timing breakdown:
Section |  min time  |  avg time  |  max time  |%varavg| %total
---------------------------------------------------------------
Pair    | 208.38     | 481.05     | 760.32     |1222.0 | 61.86
Bond    | 0.022291   | 0.023959   | 0.026099   |   0.9 |  0.00
Neigh   | 0.36825    | 0.76089    | 1.1511     |  44.4 |  0.10
Comm    | 13.07      | 291.55     | 563.5      |1565.5 | 37.49
Output  | 0.12389    | 0.13087    | 0.15162    |   3.3 |  0.02
Modify  | 2.2541     | 3.2812     | 4.2704     |  54.6 |  0.42
Other   |            | 0.913      |            |       |  0.12

Nlocal:        175.000 ave         319 max          19 min
Histogram: 1 1 0 0 0 0 0 0 0 2
Nghost:        340.000 ave         377 max         295 min
Histogram: 1 0 1 0 0 0 0 0 0 2
Neighs:         0.00000 ave           0 max           0 min
Histogram: 4 0 0 0 0 0 0 0 0 0
FullNghs:      27999.5 ave       53537 max        2240 min
Histogram: 2 0 0 0 0 0 0 0 0 2

Total # of neighbors = 111998
Ave neighs/atom = 159.99714
Ave special neighs/atom = 0.0000000
Neighbor list builds = 747
Dangerous builds = 0
Total wall time: 0:13:07
