LAMMPS (28 Mar 2023 - Update 1)
OMP_NUM_THREADS environment is not set. Defaulting to 1 thread. (src/comm.cpp:98)
  using 1 OpenMP thread(s) per MPI task
# Initialisation
variable T equal 300

units metal
atom_style full
boundary p p p
pair_style airebo 2.5 1 1

# System definition
read_data cnt.data
Reading data file ...
  orthogonal box = (-30 -30 0) to (30 30 100)
  1 by 1 by 1 MPI processor grid
  reading atoms ...
  700 atoms
Finding 1-2 1-3 1-4 neighbors ...
  special bond factors lj:    0        0        0       
  special bond factors coul:  0        0        0       
     0 = max # of 1-2 neighbors
     0 = max # of 1-3 neighbors
     0 = max # of 1-4 neighbors
     1 = max # of special neighbors
  special bonds CPU = 0.000 seconds
  read_data CPU = 0.007 seconds
pair_coeff * * CH.airebo C
Reading airebo potential file CH.airebo with DATE: 2011-10-25

# Simulation settings
group gcar type 1
700 atoms in group gcar
variable zmax equal bound(gcar,zmax)-0.5
variable zmin equal bound(gcar,zmin)+0.5
region rtop block INF INF INF INF ${zmax} INF
region rtop block INF INF INF INF 55.239178 INF
region rbot block INF INF INF INF INF ${zmin}
region rbot block INF INF INF INF INF 0.5
region rmid block INF INF INF INF ${zmin} ${zmax}
region rmid block INF INF INF INF 0.5 ${zmax}
region rmid block INF INF INF INF 0.5 55.239178

group gtop region rtop
10 atoms in group gtop
group gbot region rbot
10 atoms in group gbot
group gmid region rmid
680 atoms in group gmid

velocity gmid create ${T} 48455 mom yes rot yes
velocity gmid create 300 48455 mom yes rot yes
fix mynve all nve
compute Tmid gmid temp
fix myber gmid temp/berendsen ${T} ${T} 0.1
fix myber gmid temp/berendsen 300 ${T} 0.1
fix myber gmid temp/berendsen 300 300 0.1
fix_modify myber temp Tmid

fix mysf1 gbot setforce NULL NULL 0
fix mysf2 gtop setforce NULL NULL 0
velocity gbot set NULL NULL 0
velocity gtop set NULL NULL 0

variable pos equal xcm(gtop,z)
fix at1 all ave/time 10 100 1000 v_pos file cnt_deflection.dat
fix at2 all ave/time 10 100 1000 f_mysf1[1] f_mysf2[1] file force.dat
dump mydmp all atom 1000 dump.lammpstrj

thermo 100
thermo_modify temp Tmid
WARNING: Temperature for thermo pressure is not for group all (src/thermo.cpp:521)

# Run
timestep 0.0005
run 5000
Neighbor list info ...
  update: every = 1 steps, delay = 0 steps, check = yes
  max neighbors/atom: 2000, page size: 100000
  master list distance cutoff = 10.5
  ghost atom cutoff = 10.5
  binsize = 5.25, bins = 12 12 20
  1 neighbor lists, perpetual/occasional/extra = 1 0 0
  (1) pair airebo, perpetual
      attributes: full, newton on, ghost
      pair build: full/bin/ghost
      stencil: full/ghost/bin/3d
      bin: standard
Per MPI rank memory allocation (min/avg/max) = 8.273 | 8.273 | 8.273 Mbytes
   Step          Temp          E_pair         E_mol          TotEng         Press     
         0   300           -5084.7276      0             -5058.3973     -1515.7017    
       100   237.49462     -5075.4114      0             -5054.5671     -155.05545    
       200   238.86589     -5071.9168      0             -5050.9521     -498.15029    
       300   220.04074     -5067.1113      0             -5047.7989     -1514.8516    
       400   269.23434     -5069.6565      0             -5046.0264     -174.31158    
       500   274.92241     -5068.5989      0             -5044.4696     -381.28758    
       600   261.91841     -5065.985       0             -5042.9971     -1507.5577    
       700   288.47709     -5067.7301      0             -5042.4111     -312.16669    
       800   289.85177     -5066.5482      0             -5041.1086     -259.84893    
       900   279.34891     -5065.0216      0             -5040.5038     -1390.8508    
      1000   312.27343     -5067.6245      0             -5040.217      -465.74352    
      1100   296.79838     -5065.7738      0             -5039.7245     -214.26005    
      1200   270.95687     -5063.2575      0             -5039.4762     -1307.9934    
      1300   305.62464     -5066.381       0             -5039.557      -613.87963    
      1400   296.6987      -5065.1095      0             -5039.0689     -177.48003    
      1500   293.02365     -5064.7377      0             -5039.0197     -1149.4413    
      1600   314.0368      -5066.5034      0             -5038.9412     -757.72518    
      1700   288.14036     -5064.2085      0             -5038.9191     -301.80913    
      1800   301.59831     -5064.8676      0             -5038.397      -929.12184    
      1900   314.42411     -5066.1097      0             -5038.5135     -862.51837    
      2000   284.53456     -5063.9218      0             -5038.9489     -346.7093     
      2100   297.43583     -5064.557       0             -5038.4517     -812.58276    
      2200   291.11601     -5064.0011      0             -5038.4505     -930.87663    
      2300   283.85908     -5063.7144      0             -5038.8007     -493.89935    
      2400   307.56581     -5065.3507      0             -5038.3564     -600.27581    
      2500   299.55552     -5064.6856      0             -5038.3943     -940.5822     
      2600   296.0557      -5064.7583      0             -5038.7742     -659.13823    
      2700   290.20836     -5063.8619      0             -5038.391      -562.40312    
      2800   302.9251      -5064.8122      0             -5038.2252     -847.50405    
      2900   296.72482     -5064.4958      0             -5038.453      -818.37871    
      3000   293.96588     -5064.554       0             -5038.7533     -458.67518    
      3100   297.10779     -5064.5463      0             -5038.4699     -809.36811    
      3200   300.74007     -5064.9214      0             -5038.5261     -871.8059     
      3300   299.40154     -5064.7577      0             -5038.4799     -500.06162    
      3400   301.0983      -5064.7416      0             -5038.3149     -769.54147    
      3500   306.46051     -5065.1931      0             -5038.2958     -894.33383    
      3600   297.19201     -5064.6353      0             -5038.5515     -515.21286    
      3700   306.33462     -5065.1015      0             -5038.2153     -659.77037    
      3800   324.28749     -5066.638       0             -5038.1761     -868.43898    
      3900   306.35666     -5065.473       0             -5038.5848     -614.15169    
      4000   286.11603     -5063.5114      0             -5038.3997     -587.98539    
      4100   300.25618     -5064.6836      0             -5038.3309     -857.11717    
      4200   306.17205     -5065.1893      0             -5038.3173     -754.12957    
      4300   289.37711     -5063.619       0             -5038.221      -476.56254    
      4400   293.35194     -5064.2286      0             -5038.4818     -785.67337    
      4500   301.94229     -5065.2195      0             -5038.7188     -874.9217     
      4600   298.86715     -5064.8236      0             -5038.5927     -465.75249    
      4700   298.53762     -5065.0381      0             -5038.8362     -778.31269    
      4800   294.30847     -5064.2514      0             -5038.4207     -936.19214    
      4900   296.12281     -5064.5492      0             -5038.5592     -420.78715    
      5000   298.14327     -5064.4519      0             -5038.2846     -823.76253    
Loop time of 20.4054 on 1 procs for 5000 steps with 700 atoms

Performance: 10.585 ns/day, 2.267 hours/ns, 245.033 timesteps/s, 171.523 katom-step/s
100.0% CPU use with 1 MPI tasks x 1 OpenMP threads

MPI task timing breakdown:
Section |  min time  |  avg time  |  max time  |%varavg| %total
---------------------------------------------------------------
Pair    | 20.337     | 20.337     | 20.337     |   0.0 | 99.67
Bond    | 0.00034903 | 0.00034903 | 0.00034903 |   0.0 |  0.00
Neigh   | 0          | 0          | 0          |   0.0 |  0.00
Comm    | 0.0036867  | 0.0036867  | 0.0036867  |   0.0 |  0.02
Output  | 0.0031222  | 0.0031222  | 0.0031222  |   0.0 |  0.02
Modify  | 0.049194   | 0.049194   | 0.049194   |   0.0 |  0.24
Other   |            | 0.01157    |            |       |  0.06

Nlocal:            700 ave         700 max         700 min
Histogram: 1 0 0 0 0 0 0 0 0 0
Nghost:            135 ave         135 max         135 min
Histogram: 1 0 0 0 0 0 0 0 0 0
Neighs:              0 ave           0 max           0 min
Histogram: 1 0 0 0 0 0 0 0 0 0
FullNghs:       109830 ave      109830 max      109830 min
Histogram: 1 0 0 0 0 0 0 0 0 0

Total # of neighbors = 109830
Ave neighs/atom = 156.9
Ave special neighs/atom = 0
Neighbor list builds = 0
Dangerous builds = 0

# 0.15 A/ps = 30 m/s
velocity gtop set NULL NULL 0.15
run 280000
Per MPI rank memory allocation (min/avg/max) = 8.273 | 8.273 | 8.273 Mbytes
   Step          Temp          E_pair         E_mol          TotEng         Press     
      5000   298.14327     -5064.4519      0             -5038.2846     -823.76253    
      5100   298.88555     -5064.2955      0             -5038.0631     -929.10939    
      5200   312.98439     -5065.6459      0             -5038.176      -458.80503    
      5300   301.57719     -5064.5262      0             -5038.0574     -818.23556    
      5400   303.51468     -5064.6639      0             -5038.0251     -926.424      
      5500   300.35216     -5064.4373      0             -5038.0761     -491.99649    
      5600   303.08853     -5064.9022      0             -5038.3009     -798.25622    
      5700   298.12338     -5064.0091      0             -5037.8435     -951.57306    
      5800   309.37853     -5065.0057      0             -5037.8523     -535.33468    
      5900   306.24916     -5064.8119      0             -5037.9331     -715.24426    
      6000   292.51363     -5063.3932      0             -5037.7199     -967.94767    
      6100   310.49715     -5064.9403      0             -5037.6887     -577.84437    
      6200   290.76692     -5063.1651      0             -5037.6452     -774.48531    
      6300   288.25583     -5062.7218      0             -5037.4223     -1041.5781    
      6400   296.49825     -5063.4383      0             -5037.4154     -645.73701    
      6500   288.26339     -5062.6723      0             -5037.3721     -704.72163    
      6600   284.97827     -5062.2228      0             -5037.211      -1023.8159    
      6700   314.44364     -5064.6818      0             -5037.0838     -673.7402     
      6800   293.4107      -5062.9517      0             -5037.1997     -789.17272    
      6900   289.73147     -5062.8213      0             -5037.3922     -1084.9832    
      7000   293.59882     -5063.112       0             -5037.3435     -720.45242    
      7100   292.03378     -5062.3881      0             -5036.757      -699.97036    
      7200   298.74472     -5063.0961      0             -5036.8759     -1068.2767    
      7300   309.64488     -5063.8362      0             -5036.6594     -797.0564     
      7400   297.68193     -5062.9312      0             -5036.8043     -723.2599     
      7500   310.65253     -5064.0613      0             -5036.7961     -1093.7913    
      7600   310.37737     -5063.8021      0             -5036.561      -867.36705    
      7700   300.10493     -5063.0081      0             -5036.6686     -690.66477    
      7800   301.7824      -5063.1881      0             -5036.7013     -1012.2872    
      7900   313.33143     -5064.0186      0             -5036.5183     -946.04157    
      8000   309.91082     -5063.4497      0             -5036.2495     -742.20181    
      8100   311.17599     -5063.6113      0             -5036.3001     -1040.4096    
      8200   288.6922      -5061.2653      0             -5035.9275     -1022.7874    
      8300   297.27971     -5062.1306      0             -5036.0391     -725.29799    
      8400   301.24368     -5062.1555      0             -5035.7161     -988.38108    
      8500   300.81364     -5062.1781      0             -5035.7763     -1045.1377    
      8600   298.31519     -5061.9464      0             -5035.764      -728.8138     
      8700   296.63836     -5061.6025      0             -5035.5673     -999.95586    
      8800   302.15892     -5062.2427      0             -5035.7229     -1101.9834    
      8900   290.57165     -5061.0794      0             -5035.5766     -738.94499    
      9000   298.24285     -5061.785       0             -5035.6089     -969.69792    
      9100   296.60671     -5061.3896      0             -5035.3571     -1105.17      
      9200   298.3406      -5061.4959      0             -5035.3112     -817.10333    
      9300   310.74532     -5062.2058      0             -5034.9324     -1007.8945    
      9400   295.81078     -5061.0047      0             -5035.0421     -1166.2228    
      9500   305.08836     -5061.604       0             -5034.8271     -845.78286    
      9600   295.3118      -5060.8388      0             -5034.92       -957.61706    
      9700   287.21379     -5059.8178      0             -5034.6097     -1229.1342    
      9800   293.63629     -5060.5325      0             -5034.7608     -901.61683    
      9900   295.29206     -5060.3825      0             -5034.4654     -972.69731    
     10000   292.44856     -5060.0749      0             -5034.4073     -1251.2112    
     10100   305.79876     -5061.3164      0             -5034.4771     -901.24448    
     10200   294.16427     -5060.2308      0             -5034.4127     -962.49129    
     10300   294.47723     -5060.4422      0             -5034.5967     -1237.3969    
     10400   302.6901      -5060.4508      0             -5033.8844     -965.09562    
     10500   305.95285     -5060.9548      0             -5034.1021     -881.61423    
     10600   286.35718     -5058.999       0             -5033.8661     -1284.8685    
     10700   306.38052     -5060.9126      0             -5034.0223     -996.88428    
     10800   305.59759     -5060.73        0             -5033.9084     -924.53752    
     10900   286.4025      -5058.5286      0             -5033.3918     -1253.7724    
     11000   297.37133     -5059.7112      0             -5033.6116     -1039.0235    
     11100   305.3456      -5060.1123      0             -5033.3128     -972.31317    
     11200   306.48017     -5060.3063      0             -5033.4073     -1275.4355    
     11300   303.06828     -5059.627       0             -5033.0274     -1076.5823    
     11400   294.96466     -5059.0573      0             -5033.169      -969.01793    
     11500   300.4149      -5059.2131      0             -5032.8464     -1304.3292    
     11600   296.1929      -5058.5308      0             -5032.5347     -1130.5625    
     11700   297.8922      -5058.6517      0             -5032.5064     -970.20673    
     11800   307.22781     -5059.6912      0             -5032.7265     -1345.0764    
     11900   300.9391      -5059.1144      0             -5032.7017     -1165.0521    
     12000   287.93602     -5057.8973      0             -5032.6258     -925.86979    
     12100   310.31712     -5059.7529      0             -5032.5171     -1293.7586    
     12200   301.38164     -5058.8223      0             -5032.3707     -1259.651     
     12300   284.91348     -5056.9904      0             -5031.9842     -926.80035    
     12400   300.1587      -5058.2836      0             -5031.9394     -1230.5128    
     12500   294.07307     -5057.8228      0             -5032.0127     -1316.3987    
     12600   296.06304     -5057.7966      0             -5031.8118     -994.18076    
     12700   291.02787     -5057.3077      0             -5031.7648     -1246.276     
     12800   295.11845     -5057.2707      0             -5031.3688     -1324.6111    
     12900   296.12313     -5057.751       0             -5031.761      -1014.1219    
     13000   300.47138     -5058.1911      0             -5031.8194     -1252.1579    
     13100   307.4847      -5058.3099      0             -5031.3227     -1433.4097    
     13200   302.97468     -5057.8138      0             -5031.2225     -1057.0314    
     13300   304.4681      -5057.9345      0             -5031.2121     -1222.6422    
     13400   315.21764     -5058.643       0             -5030.9771     -1412.8589    
     13500   298.57886     -5057.0576      0             -5030.852      -1106.0334    
     13600   289.92514     -5056.2681      0             -5030.8221     -1246.2337    
     13700   294.50147     -5056.345       0             -5030.4973     -1454.7351    
     13800   303.59498     -5057.0822      0             -5030.4364     -1090.4563    
     13900   312.56303     -5057.8711      0             -5030.4382     -1156.5023    
     14000   295.30345     -5056.1598      0             -5030.2418     -1466.1946    
     14100   294.6624      -5055.9957      0             -5030.1339     -1196.8272    
     14200   307.85302     -5057.0117      0             -5029.9922     -1135.7279    
     14300   298.13917     -5056.0582      0             -5029.8912     -1511.2966    
     14400   295.87585     -5055.9359      0             -5029.9676     -1192.2796    
     14500   314.76643     -5057.2664      0             -5029.6401     -1187.8289    
     14600   305.87831     -5056.3897      0             -5029.5435     -1521.1266    
     14700   303.45118     -5055.8218      0             -5029.1886     -1279.7334    
     14800   309.40632     -5056.2545      0             -5029.0987     -1164.4117    
     14900   303.84861     -5055.723       0             -5029.0549     -1526.1599    
     15000   306.15949     -5055.7596      0             -5028.8887     -1318.9902    
     15100   295.18442     -5054.7622      0             -5028.8546     -1195.0718    
     15200   295.63969     -5054.8133      0             -5028.8657     -1514.11      
     15300   312.20516     -5056.2588      0             -5028.8573     -1370.1059    
     15400   295.15751     -5054.645       0             -5028.7398     -1151.763     
     15500   290.21615     -5053.8923      0             -5028.4207     -1489.1583    
     15600   288.06128     -5053.6142      0             -5028.3318     -1407.6367    
     15700   297.65198     -5054.8025      0             -5028.6783     -1223.8383    
     15800   296.27219     -5054.2543      0             -5028.2511     -1505.3885    
     15900   302.9281      -5054.8085      0             -5028.2213     -1392.7596    
     16000   292.77536     -5053.6319      0             -5027.9357     -1253.2252    
     16100   297.72022     -5053.9438      0             -5027.8136     -1494.0903    
     16200   293.38373     -5053.3635      0             -5027.6139     -1476.7756    
     16300   293.84564     -5053.2874      0             -5027.4972     -1302.6206    
     16400   288.44804     -5052.6689      0             -5027.3525     -1453.7624    
     16500   299.32572     -5053.235       0             -5026.9639     -1502.7995    
     16600   297.14244     -5052.9141      0             -5026.8346     -1317.2638    
     16700   294.89213     -5052.7598      0             -5026.8778     -1495.1293    
     16800   301.01905     -5053.1706      0             -5026.7509     -1563.1021    
     16900   300.53687     -5053.0946      0             -5026.7172     -1332.8837    
     17000   294.30875     -5052.7517      0             -5026.9209     -1441.5709    
     17100   299.37463     -5052.8686      0             -5026.5932     -1568.1677    
     17200   289.22743     -5051.9693      0             -5026.5845     -1373.9632    
     17300   296.99979     -5052.4343      0             -5026.3673     -1422.1504    
     17400   309.44498     -5053.108       0             -5025.9487     -1570.2296    
     17500   303.28615     -5052.4931      0             -5025.8744     -1427.5711    
     17600   299.69505     -5052.0222      0             -5025.7187     -1413.4149    
     17700   308.10249     -5052.6903      0             -5025.6488     -1646.9601    
     17800   300.99701     -5051.8567      0             -5025.4389     -1444.1564    
     17900   295.26071     -5051.4932      0             -5025.5789     -1420.4641    
     18000   308.43198     -5052.4229      0             -5025.3526     -1678.3403    
     18100   314.47126     -5052.6506      0             -5025.0502     -1547.4987    
     18200   305.7499      -5051.737       0             -5024.902      -1436.6005    
     18300   307.61897     -5051.9358      0             -5024.9368     -1649.8156    
     18400   299.27637     -5050.8973      0             -5024.6305     -1524.7195    
     18500   294.33089     -5050.3142      0             -5024.4815     -1441.2493    
     18600   300.35701     -5050.6911      0             -5024.3295     -1642.1817    
     18700   301.13594     -5050.5833      0             -5024.1534     -1528.2114    
     18800   289.12037     -5049.5163      0             -5024.1408     -1437.7106    
     18900   296.36179     -5050.0421      0             -5024.0311     -1639.584     
     19000   300.66342     -5050.4713      0             -5024.0828     -1592.1453    
     19100   295.87509     -5049.833       0             -5023.8648     -1520.0169    
     19200   293.94367     -5049.5661      0             -5023.7674     -1607.9527    
     19300   305.45453     -5050.4201      0             -5023.6111     -1612.0544    
     19400   299.76962     -5049.6945      0             -5023.3844     -1555.8449    
     19500   290.54507     -5048.5952      0             -5023.0947     -1678.4025    
     19600   305.68426     -5049.8288      0             -5022.9996     -1664.8017    
     19700   307.39951     -5049.5257      0             -5022.546      -1540.0687    
     19800   296.40409     -5048.652       0             -5022.6373     -1617.4704    
     19900   304.67418     -5049.3837      0             -5022.6431     -1696.5695    
     20000   297.42759     -5048.6705      0             -5022.566      -1613.782     
     20100   294.85295     -5048.3152      0             -5022.4367     -1617.9602    
     20200   303.83072     -5049.0744      0             -5022.4079     -1686.8151    
     20300   297.7136      -5048.2527      0             -5022.123      -1592.9615    
     20400   297.27476     -5048.0906      0             -5021.9995     -1637.1316    
     20500   299.84102     -5047.9516      0             -5021.6353     -1719.5169    
     20600   295.87183     -5047.3347      0             -5021.3667     -1638.5457    
     20700   303.50905     -5047.7857      0             -5021.1474     -1628.0485    
     20800   303.944       -5047.8571      0             -5021.1806     -1726.5072    
     20900   302.86893     -5047.8053      0             -5021.2232     -1688.2604    
     21000   309.51496     -5048.3491      0             -5021.1837     -1679.6349    
     21100   297.91805     -5046.9392      0             -5020.7916     -1744.651     
     21200   308.35364     -5047.636       0             -5020.5725     -1718.1067    
     21300   298.52236     -5046.7437      0             -5020.5431     -1708.5091    
     21400   294.52889     -5046.065       0             -5020.2149     -1768.6606    
     21500   306.67103     -5046.9148      0             -5019.999      -1748.3985    
     21600   304.50393     -5046.6004      0             -5019.8748     -1691.6434    
     21700   295.18925     -5045.858       0             -5019.9499     -1731.1823    
     21800   306.17957     -5046.3841      0             -5019.5115     -1767.1124    
     21900   299.91647     -5046.0531      0             -5019.7301     -1727.7354    
     22000   297.78217     -5045.5886      0             -5019.4529     -1752.5676    
     22100   294.52855     -5045.0993      0             -5019.2492     -1726.3918    
     22200   296.42391     -5045.1233      0             -5019.1069     -1724.3008    
     22300   306.63628     -5045.8204      0             -5018.9076     -1783.9051    
     22400   303.52686     -5045.412       0             -5018.7721     -1831.0196    
     22500   304.38515     -5045.3124      0             -5018.5973     -1756.8594    
     22600   297.3832      -5044.5124      0             -5018.4117     -1785.3726    
     22700   293.49127     -5044.0293      0             -5018.2703     -1828.3045    
     22800   286.11263     -5043.0577      0             -5017.9462     -1797.1287    
     22900   296.24511     -5043.9042      0             -5017.9035     -1828.2729    
     23000   301.0125      -5044.2436      0             -5017.8245     -1879.6758    
     23100   296.57216     -5043.6362      0             -5017.6068     -1722.7073    
     23200   303.66018     -5044.1886      0             -5017.5371     -1830.6234    
     23300   309.43635     -5044.3773      0             -5017.2188     -1929.9367    
     23400   294.94366     -5042.8815      0             -5016.9949     -1742.0089    
     23500   302.24984     -5043.4285      0             -5016.9008     -1822.7287    
     23600   307.74494     -5043.8343      0             -5016.8242     -1916.5734    
     23700   307.69472     -5043.6249      0             -5016.6192     -1744.9142    
     23800   305.07886     -5043.2834      0             -5016.5073     -1858.1106    
     23900   297.35587     -5042.4633      0             -5016.3651     -1971.6009    
     24000   303.31164     -5043.0117      0             -5016.3907     -1778.5966    
     24100   301.42121     -5042.5794      0             -5016.1243     -1893.7162    
     24200   293.50857     -5041.8843      0             -5016.1238     -1961.5174    
     24300   300.23431     -5042.0145      0             -5015.6636     -1873.0201    
     24400   304.28417     -5042.1167      0             -5015.4104     -1877.0273    
     24500   303.0641      -5041.7745      0             -5015.1753     -2000.5232    
     24600   296.83885     -5040.9846      0             -5014.9317     -1862.8125    
     24700   298.72686     -5041.1106      0             -5014.892      -1889.5397    
     24800   299.85591     -5041.0786      0             -5014.761      -2027.3514    
     24900   299.18209     -5040.7531      0             -5014.4946     -1884.582     
     25000   307.86803     -5041.5135      0             -5014.4927     -1887.537     
     25100   285.46664     -5039.3783      0             -5014.3235     -2036.2411    
     25200   302.26463     -5040.5836      0             -5014.0545     -1887.999     
     25300   298.58174     -5040.2272      0             -5014.0214     -1906.0024    
     25400   295.67436     -5039.6013      0             -5013.6507     -2011.7816    
     25500   309.07475     -5040.5705      0             -5013.4437     -1930.4783    
     25600   300.89872     -5039.7461      0             -5013.337      -1924.0861    
     25700   298.59806     -5039.6818      0             -5013.4746     -2027.0845    
     25800   306.71767     -5039.791       0             -5012.8712     -1966.6712    
     25900   305.5383      -5039.6737      0             -5012.8574     -1966.8261    
     26000   299.22156     -5039.2663      0             -5013.0043     -2056.2284    
     26100   304.67109     -5039.3814      0             -5012.6411     -2015.0955    
     26200   304.76348     -5038.8823      0             -5012.1339     -1977.1351    
     26300   308.88245     -5039.0751      0             -5011.9652     -2045.982     
     26400   305.53849     -5038.7037      0             -5011.8873     -2036.0876    
     26500   309.17668     -5038.6101      0             -5011.4744     -1978.5965    
     26600   297.29503     -5037.5316      0             -5011.4387     -2038.2767    
     26700   297.6588      -5037.7135      0             -5011.5887     -2049.098     
     26800   291.78993     -5036.9329      0             -5011.3232     -1988.2004    
     26900   289.76554     -5036.553       0             -5011.1209     -1998.4691    
     27000   308.21693     -5037.9756      0             -5010.9241     -2096.7506    
     27100   283.66649     -5035.7408      0             -5010.8441     -1983.9285    
     27200   293.93423     -5036.4224      0             -5010.6245     -2040.9361    
     27300   296.32891     -5036.3119      0             -5010.3038     -2129.0811    
     27400   310.24314     -5037.4735      0             -5010.2442     -2073.7288    
     27500   300.97146     -5036.2827      0             -5009.8671     -2017.748     
     27600   300.16782     -5035.9517      0             -5009.6067     -2116.2882    
     27700   293.65478     -5035.2571      0             -5009.4837     -2127.3525    
     27800   295.3383      -5035.1541      0             -5009.233      -2075.2517    
     27900   294.37206     -5035.0874      0             -5009.251      -2140.764     
     28000   286.592       -5034.2409      0             -5009.0874     -2108.5519    
     28100   294.56029     -5034.7482      0             -5008.8953     -2073.2912    
     28200   310.31182     -5035.7477      0             -5008.5124     -2185.5552    
     28300   312.44217     -5035.6725      0             -5008.2502     -2085.6827    
     28400   300.31229     -5034.5581      0             -5008.2004     -2059.8686    
     28500   299.82181     -5034.4912      0             -5008.1765     -2161.2979    
     28600   291.38075     -5033.4486      0             -5007.8748     -2119.5583    
     28700   301.0316      -5034.3719      0             -5007.9511     -2097.0371    
     28800   299.17719     -5033.9449      0             -5007.6868     -2227.2026    
     28900   287.45133     -5032.5337      0             -5007.3048     -2144.2539    
     29000   297.84624     -5033.5613      0             -5007.42       -2096.536     
     29100   288.88199     -5032.4599      0             -5007.1054     -2264.7813    
     29200   296.73848     -5032.8985      0             -5006.8545     -2153.0223    
     29300   300.72135     -5032.8346      0             -5006.441      -2092.5435    
     29400   290.16236     -5031.7711      0             -5006.3043     -2266.5444    
     29500   305.42332     -5032.6941      0             -5005.8879     -2223.7647    
     29600   290.56551     -5031.5396      0             -5006.0374     -2072.9244    
     29700   305.38145     -5032.6288      0             -5005.8262     -2294.9948    
     29800   300.87392     -5032.2059      0             -5005.7989     -2245.7863    
     29900   300.07428     -5031.7302      0             -5005.3934     -2083.2664    
     30000   296.34629     -5031.3436      0             -5005.334      -2278.5512    
     30100   299.54336     -5031.3134      0             -5005.0231     -2274.7418    
     30200   302.69399     -5031.1006      0             -5004.5338     -2080.4787    
     30300   299.26249     -5030.7902      0             -5004.5246     -2273.8611    
     30400   299.52175     -5030.3769      0             -5004.0886     -2273.1989    
     30500   293.12186     -5030.0135      0             -5004.2869     -2112.9917    
     30600   305.20346     -5030.8035      0             -5004.0165     -2300.7779    
     30700   300.75973     -5030.2356      0             -5003.8387     -2312.9893    
     30800   299.77674     -5029.9637      0             -5003.653      -2209.3795    
     30900   292.60857     -5028.9077      0             -5003.2262     -2277.995     
     31000   298.61259     -5029.1447      0             -5002.9362     -2335.2936    
     31100   295.8283      -5028.6008      0             -5002.6366     -2207.9179    
     31200   294.37457     -5028.425       0             -5002.5885     -2328.1803    
     31300   299.53366     -5028.676       0             -5002.3866     -2332.0657    
     31400   298.79605     -5028.4968      0             -5002.2721     -2226.3241    
     31500   311.37426     -5029.4457      0             -5002.1172     -2293.0487    
     31600   310.43613     -5029.3184      0             -5002.0722     -2349.3993    
     31700   301.64971     -5028.2216      0             -5001.7466     -2212.7219    
     31800   306.82697     -5028.4689      0             -5001.5394     -2309.0018    
     31900   303.55941     -5027.9438      0             -5001.3011     -2391.5044    
     32000   291.15595     -5026.7144      0             -5001.1603     -2277.3978    
     32100   315.6275      -5028.374       0             -5000.6721     -2303.1756    
     32200   305.51782     -5027.2164      0             -5000.4018     -2386.3176    
     32300   298.11298     -5026.6888      0             -5000.5241     -2323.8011    
     32400   297.32005     -5026.2071      0             -5000.1121     -2294.4413    
     32500   300.24748     -5026.5095      0             -5000.1575     -2439.6492    
     32600   302.03434     -5026.4357      0             -4999.9268     -2361.6431    
     32700   301.5344      -5026.0303      0             -4999.5653     -2331.4581    
     32800   285.71841     -5024.2305      0             -4999.1537     -2459.53      
     32900   303.51034     -5025.7569      0             -4999.1185     -2428.4751    
     33000   298.25795     -5025.067       0             -4998.8896     -2283.0152    
     33100   315.05578     -5026.3702      0             -4998.7185     -2425.6793    
     33200   303.69583     -5025.0938      0             -4998.4391     -2405.8483    
     33300   306.78653     -5025.3474      0             -4998.4215     -2300.5772    
     33400   301.75285     -5024.6248      0             -4998.1407     -2458.6772    
     33500   297.23395     -5024.4474      0             -4998.3599     -2421.0449    
     33600   300.98832     -5024.3189      0             -4997.9018     -2323.0442    
     33700   291.47662     -5023.2367      0             -4997.6545     -2481.9348    
     33800   298.57428     -5023.5175      0             -4997.3123     -2492.1385    
     33900   305.85119     -5023.9831      0             -4997.1393     -2311.9118    
     34000   288.23543     -5022.308       0             -4997.0103     -2484.8799    
     34100   301.12807     -5023.2163      0             -4996.787      -2511.257     
     34200   298.33213     -5022.781       0             -4996.5971     -2411.1642    
     34300   312.25996     -5023.4595      0             -4996.0532     -2461.618     
     34400   300.89069     -5022.3851      0             -4995.9766     -2521.7825    
     34500   304.63987     -5022.4696      0             -4995.7321     -2431.0194    
     34600   295.11431     -5021.2846      0             -4995.3832     -2482.8327    
     34700   295.33377     -5021.1759      0             -4995.2551     -2516.3271    
     34800   309.72191     -5022.2566      0             -4995.073      -2442.5268    
     34900   298.81447     -5021.1019      0             -4994.8757     -2451.6992    
     35000   297.73032     -5020.9138      0             -4994.7827     -2514.4901    
     35100   284.78053     -5019.5912      0             -4994.5966     -2493.8214    
     35200   299.94223     -5020.6122      0             -4994.287      -2441.1171    
     35300   299.35206     -5020.2991      0             -4994.0257     -2559.5158    
     35400   304.33419     -5020.5868      0             -4993.8761     -2518.7194    
     35500   306.21665     -5020.6673      0             -4993.7914     -2493.9176    
     35600   291.52393     -5019.1827      0             -4993.5963     -2539.412     
     35700   299.45746     -5019.4493      0             -4993.1666     -2558.5191    
     35800   293.72852     -5018.7107      0             -4992.9308     -2505.6522    
     35900   295.20918     -5018.5202      0             -4992.6104     -2570.9832    
     36000   298.57556     -5018.5504      0             -4992.3451     -2606.1804    
     36100   298.04361     -5018.2675      0             -4992.109      -2569.0661    
     36200   304.56169     -5018.6711      0             -4991.9405     -2574.8639    
     36300   302.84042     -5018.3343      0             -4991.7547     -2578.7443    
     36400   292.90623     -5017.4608      0             -4991.7531     -2580.063     
     36500   293.16892     -5017.1195      0             -4991.3888     -2536.9091    
     36600   301.59646     -5017.5552      0             -4991.0848     -2577.2386    
     36700   301.75486     -5017.3926      0             -4990.9083     -2570.0955    
     36800   291.77356     -5016.0232      0             -4990.4149     -2595.8688    
     36900   295.61316     -5016.2915      0             -4990.3462     -2636.3888    
     37000   295.98086     -5016.1481      0             -4990.1706     -2562.0393    
     37100   302.4486      -5016.4403      0             -4989.8951     -2590.0884    
     37200   294.54156     -5015.7427      0             -4989.8915     -2644.6318    
     37300   309.32838     -5016.6415      0             -4989.4925     -2629.007     
     37400   303.17744     -5015.9722      0             -4989.363      -2638.0812    
     37500   295.4867      -5014.9631      0             -4989.0289     -2633.4924    
     37600   306.89791     -5015.5464      0             -4988.6107     -2649.3092    
     37700   296.11954     -5014.425       0             -4988.4353     -2660.0485    
     37800   297.7793      -5014.3674      0             -4988.232      -2690.2774    
     37900   301.92547     -5014.6939      0             -4988.1946     -2594.3361    
     38000   299.22444     -5014.2107      0             -4987.9485     -2673.5183    
     38100   297.33224     -5013.644       0             -4987.5479     -2708.9383    
     38200   295.06317     -5013.2821      0             -4987.3851     -2605.7648    
     38300   294.29743     -5012.9248      0             -4987.095      -2633.8741    
     38400   302.53764     -5013.5642      0             -4987.0111     -2746.0462    
     38500   294.10569     -5012.5309      0             -4986.718      -2571.9194    
     38600   286.47244     -5011.4673      0             -4986.3243     -2683.1154    
     38700   302.80147     -5012.6896      0             -4986.1134     -2756.5318    
     38800   294.26702     -5011.9287      0             -4986.1016     -2658.5649    
     38900   311.05558     -5013.0256      0             -4985.725      -2675.0429    
     39000   296.71047     -5011.6343      0             -4985.5927     -2783.9553    
     39100   300.98182     -5011.5834      0             -4985.167      -2733.6344    
     39200   300.31264     -5011.2216      0             -4984.8639     -2662.4907    
     39300   304.43606     -5011.362       0             -4984.6424     -2779.9851    
     39400   302.84324     -5010.8147      0             -4984.2349     -2753.9008    
     39500   307.65402     -5011.3431      0             -4984.341      -2697.1439    
     39600   310.11031     -5011.3046      0             -4984.087      -2830.1583    
     39700   296.46608     -5009.6111      0             -4983.591      -2755.983     
     39800   307.05717     -5010.5407      0             -4983.591      -2663.3515    
     39900   297.48029     -5009.4523      0             -4983.3432     -2815.8981    
     40000   303.85417     -5009.6224      0             -4982.9539     -2777.3356    
     40100   292.59891     -5008.434       0             -4982.7532     -2665.6449    
     40200   289.57444     -5007.9603      0             -4982.545      -2851.3645    
     40300   284.0213      -5007.1153      0             -4982.1874     -2833.0509    
     40400   310.6689      -5009.2188      0             -4981.9521     -2687.8471    
     40500   297.08939     -5008.1224      0             -4982.0476     -2849.1137    
     40600   296.00653     -5007.6199      0             -4981.6402     -2841.3135    
     40700   302.43317     -5007.8081      0             -4981.2643     -2698.0534    
     40800   292.02395     -5006.8178      0             -4981.1875     -2896.6565    
     40900   298.99845     -5007.0004      0             -4980.758      -2884.3588    
     41000   285.7718      -5005.4311      0             -4980.3496     -2736.965     
     41100   305.39952     -5007.0362      0             -4980.232      -2890.3704    
     41200   296.3161      -5005.9986      0             -4979.9917     -2844.5       
     41300   294.46092     -5005.7041      0             -4979.86       -2724.9042    
     41400   304.22414     -5006.1841      0             -4979.483      -2904.0676    
     41500   296.36285     -5005.0999      0             -4979.0888     -2919.455     
     41600   297.86108     -5005.2626      0             -4979.12       -2742.8239    
     41700   298.00452     -5005.0233      0             -4978.8681     -2841.3284    
     41800   301.92773     -5005.038       0             -4978.5386     -2974.0939    
     41900   295.99682     -5004.3425      0             -4978.3636     -2762.2721    
     42000   313.14622     -5005.7747      0             -4978.2906     -2859.0503    
     42100   292.69858     -5003.4766      0             -4977.7871     -2995.9358    
     42200   282.84772     -5002.6581      0             -4977.8332     -2795.3651    
     42300   304.85188     -5003.9397      0             -4977.1835     -2909.8921    
     42400   306.881       -5003.7075      0             -4976.7733     -3022.6082    
     42500   297.11167     -5002.7894      0             -4976.7126     -2849.4069    
     42600   312.16047     -5003.8963      0             -4976.4987     -2822.2865    
     42700   301.80405     -5002.8535      0             -4976.3649     -3053.4926    
     42800   308.24133     -5002.9566      0             -4975.9029     -2862.1915    
     42900   297.88454     -5001.8166      0             -4975.672      -2837.5423    
     43000   301.44489     -5001.8057      0             -4975.3486     -2997.3584    
     43100   303.19162     -5001.6436      0             -4975.0332     -2914.1807    
     43200   291.04897     -5000.3968      0             -4974.8521     -2841.2669    
     43300   295.8598      -5000.4101      0             -4974.4432     -3010.8312    
     43400   305.03463     -5001.1171      0             -4974.3449     -2938.0064    
     43500   285.6632      -4999.4728      0             -4974.4008     -2855.3732    
     43600   293.12376     -4999.7799      0             -4974.0531     -3010.8823    
     43700   300.18402     -4999.8524      0             -4973.506      -3007.2262    
     43800   298.06393     -4999.6833      0             -4973.5229     -2916.2965    
     43900   294.60731     -4998.9602      0             -4973.1032     -3025.6078    
     44000   300.51339     -4999.1039      0             -4972.7285     -3048.5882    
     44100   294.47472     -4998.2905      0             -4972.4451     -2894.9358    
     44200   296.57615     -4998.1402      0             -4972.1104     -3052.0368    
     44300   294.24081     -4997.6083      0             -4971.7835     -3030.4511    
     44400   300.30628     -4998.0935      0             -4971.7363     -2911.002     
     44500   295.68086     -4997.4026      0             -4971.4514     -3022.6629    
     44600   300.15257     -4997.6005      0             -4971.2568     -3072.5161    
     44700   300.2705      -4997.4251      0             -4971.071      -2944.5491    
     44800   305.85772     -4997.6216      0             -4970.7772     -3038.8991    
     44900   297.37234     -4996.3221      0             -4970.2225     -3062.2446    
     45000   293.37277     -4995.9505      0             -4970.2019     -2930.0391    
     45100   298.75854     -4996.0435      0             -4969.8221     -3054.4108    
     45200   294.46428     -4995.5205      0             -4969.6761     -3092.2759    
     45300   305.47144     -4996.1554      0             -4969.3449     -2976.2943    
     45400   299.41824     -4995.6245      0             -4969.3452     -3064.6979    
     45500   302.58782     -4995.546       0             -4968.9886     -3143.138     
     45600   295.9872      -4994.5178      0             -4968.5397     -3030.2887    
     45700   306.70699     -4995.0034      0             -4968.0845     -3042.7039    
     45800   286.80865     -4993.1153      0             -4967.9427     -3128.9689    
     45900   291.24273     -4993.1972      0             -4967.6355     -3069.2296    
     46000   285.1736      -4992.4096      0             -4967.3806     -3114.8915    
     46100   303.18504     -4993.7525      0             -4967.1427     -3123.183     
     46200   308.49139     -4994.3009      0             -4967.2253     -3052.1022    
     46300   300.53809     -4993.17        0             -4966.7925     -3079.9056    
     46400   302.65753     -4993.0251      0             -4966.4615     -3138.7527    
     46500   297.22018     -4992.1518      0             -4966.0655     -3093.9945    
     46600   300.57309     -4991.9127      0             -4965.5321     -3044.7082    
     46700   299.07141     -4991.7696      0             -4965.5209     -3143.538     
     46800   294.3675      -4991.1714      0             -4965.3355     -3186.1646    
     46900   296.79264     -4991.2703      0             -4965.2215     -3113.8452    
     47000   304.13529     -4991.4683      0             -4964.775      -3098.172     
     47100   295.43748     -4990.6286      0             -4964.6987     -3121.9806    
     47200   303.84503     -4990.8228      0             -4964.1551     -3165.5063    
     47300   292.20025     -4989.5364      0             -4963.8907     -3181.2282    
     47400   304.88479     -4990.3465      0             -4963.5875     -3180.6608    
     47500   299.22998     -4989.3247      0             -4963.0619     -3169.7479    
     47600   317.84903     -4990.7648      0             -4962.8679     -3175.4354    
     47700   303.24602     -4989.3626      0             -4962.7474     -3200.5285    
     47800   304.45774     -4989.4443      0             -4962.7228     -3150.1694    
     47900   290.57303     -4987.9123      0             -4962.4094     -3134.3068    
     48000   307.45936     -4989.1585      0             -4962.1735     -3209.9131    
     48100   292.61439     -4987.5597      0             -4961.8776     -3143.2241    
     48200   294.49646     -4987.4896      0             -4961.6424     -3251.6584    
     48300   304.51546     -4987.9129      0             -4961.1863     -3230.1215    
     48400   294.24387     -4986.8073      0             -4960.9822     -3130.2798    
     48500   304.26286     -4987.3795      0             -4960.675      -3211.7198    
     48600   295.74412     -4986.2944      0             -4960.3377     -3300.2331    
     48700   317.62753     -4988.2885      0             -4960.4111     -3186.9365    
     48800   308.52607     -4986.9117      0             -4959.8331     -3188.5329    
     48900   297.45612     -4985.552       0             -4959.445      -3313.4645    
     49000   293.07977     -4984.9241      0             -4959.2011     -3225.5839    
     49100   291.82128     -4984.408       0             -4958.7955     -3219.1778    
     49200   293.15363     -4984.2245      0             -4958.4951     -3298.9166    
     49300   305.29711     -4985.1793      0             -4958.3841     -3244.6268    
     49400   295.19013     -4984.0291      0             -4958.121      -3170.4716    
     49500   306.30287     -4984.7304      0             -4957.8469     -3349.1975    
     49600   308.12065     -4984.5527      0             -4957.5097     -3291.0157    
     49700   291.16272     -4982.9397      0             -4957.3851     -3184.0169    
     49800   293.0897      -4982.84        0             -4957.1162     -3298.4843    
     49900   288.24643     -4981.9795      0             -4956.6807     -3305.5005    
     50000   295.49148     -4982.1531      0             -4956.2185     -3212.5149    
     50100   298.18442     -4982.2362      0             -4956.0653     -3285.0765    
     50200   305.63062     -4982.4909      0             -4955.6664     -3301.8324    
     50300   294.54385     -4981.5841      0             -4955.7327     -3232.2502    
     50400   285.74374     -4980.439       0             -4955.3599     -3354.3917    
     50500   300.63426     -4981.4288      0             -4955.0429     -3385.2979    
     50600   302.70777     -4981.2639      0             -4954.696      -3253.3821    
     50700   293.13932     -4980.0775      0             -4954.3493     -3348.8265    
     50800   294.61327     -4979.9831      0             -4954.1256     -3389.2112    
     50900   306.15119     -4980.585       0             -4953.7149     -3254.1751    
     51000   296.86347     -4979.3491      0             -4953.2941     -3360.2117    
     51100   300.89365     -4979.4604      0             -4953.0517     -3383.0454    
     51200   308.49982     -4980.0083      0             -4952.932      -3286.637     
     51300   303.6237      -4979.3971      0             -4952.7488     -3399.1425    
     51400   297.38675     -4978.6032      0             -4952.5023     -3379.4262    
     51500   291.34755     -4977.3806      0             -4951.8097     -3192.6304    
     51600   292.67987     -4977.4756      0             -4951.7878     -3322.8964    
     51700   293.63959     -4977.2626      0             -4951.4905     -3497.9923    
     51800   295.77428     -4977.0853      0             -4951.1259     -3259.3339    
     51900   300.10871     -4977.0389      0             -4950.699      -3356.588     
     52000   299.37646     -4976.8237      0             -4950.5482     -3503.8298    
     52100   301.24216     -4976.7569      0             -4950.3176     -3316.341     
     52200   306.01066     -4976.9604      0             -4950.1025     -3362.8717    
     52300   299.39006     -4975.9053      0             -4949.6285     -3551.812     
     52400   313.29471     -4976.761       0             -4949.2639     -3319.4265    
     52500   307.91187     -4976.0577      0             -4949.033      -3343.0279    
     52600   301.52566     -4975.2443      0             -4948.7801     -3565.5996    
     52700   299.11596     -4974.9032      0             -4948.6505     -3418.5364    
     52800   300.47013     -4974.4314      0             -4948.0598     -3334.6631    
     52900   306.26987     -4974.7921      0             -4947.9116     -3484.4452    
     53000   306.1352      -4974.4879      0             -4947.6192     -3425.6093    
     53100   299.90287     -4973.6628      0             -4947.341      -3343.7236    
     53200   295.71886     -4972.8883      0             -4946.9337     -3470.4944    
     53300   301.70883     -4973.0304      0             -4946.5502     -3401.293     
     53400   296.94005     -4972.4849      0             -4946.4231     -3382.541     
     53500   306.27968     -4973.1175      0             -4946.2361     -3520.7952    
     53600   294.71897     -4971.5869      0             -4945.7201     -3467.8911    
     53700   290.36798     -4970.8549      0             -4945.37       -3436.6028    
     53800   291.74361     -4970.713       0             -4945.1073     -3456.09      
     53900   287.54678     -4970.0003      0             -4944.763      -3480.2089    
     54000   309.56578     -4971.633       0             -4944.4632     -3528.8028    
     54100   303.60388     -4970.891       0             -4944.2444     -3494.2045    
     54200   287.34331     -4969.1517      0             -4943.9322     -3477.363     
     54300   304.39322     -4970.2812      0             -4943.5653     -3455.6432    
     54400   299.17661     -4969.5544      0             -4943.2964     -3568.5089    
     54500   306.56307     -4969.8328      0             -4942.9264     -3507.7457    
     54600   311.5292      -4970.1987      0             -4942.8565     -3448.1351    
     54700   298.9141      -4968.6402      0             -4942.4052     -3496.7847    
     54800   295.74895     -4968.1292      0             -4942.172      -3471.6168    
     54900   299.99592     -4968.0919      0             -4941.762      -3523.823     
     55000   306.8332      -4968.5323      0             -4941.6023     -3543.9951    
     55100   307.66702     -4968.2293      0             -4941.2261     -3530.2499    
     55200   307.5066      -4968.0787      0             -4941.0895     -3538.1063    
     55300   303.05282     -4967.2654      0             -4940.6672     -3532.4977    
     55400   296.5652      -4966.302       0             -4940.2732     -3546.9574    
     55500   292.29469     -4965.6731      0             -4940.0191     -3542.7562    
     55600   293.9694      -4965.7367      0             -4939.9357     -3535.943     
     55700   313.26593     -4966.8913      0             -4939.3967     -3609.3222    
     55800   290.40162     -4964.5739      0             -4939.086      -3649.2194    
     55900   308.65399     -4965.7126      0             -4938.6228     -3534.0154    
     56000   295.79195     -4964.3155      0             -4938.3545     -3564.546     
     56100   298.10051     -4964.4767      0             -4938.3132     -3594.3474    
     56200   307.54711     -4964.9049      0             -4937.9122     -3547.6495    
     56300   294.33623     -4963.2538      0             -4937.4206     -3532.3127    
     56400   297.79583     -4963.3521      0             -4937.2153     -3626.8665    
     56500   301.1237      -4963.332       0             -4936.9031     -3537.0162    
     56600   304.36906     -4963.4998      0             -4936.7861     -3565.481     
     56700   307.07189     -4963.1422      0             -4936.1912     -3660.2945    
     56800   295.45592     -4961.8296      0             -4935.8981     -3604.2199    
     56900   311.33698     -4962.9571      0             -4935.6317     -3532.667     
     57000   301.95976     -4961.6699      0             -4935.1676     -3649.1727    
     57100   309.02225     -4962.2662      0             -4935.144      -3643.7528    
     57200   309.48585     -4961.9646      0             -4934.8018     -3555.5233    
     57300   304.33668     -4961.1244      0             -4934.4135     -3680.8976    
     57400   293.4734      -4959.7323      0             -4933.9748     -3644.645     
     57500   286.72496     -4959.0029      0             -4933.8377     -3628.2768    
     57600   297.96865     -4959.5256      0             -4933.3736     -3680.9727    
     57700   298.82891     -4959.2034      0             -4932.9759     -3632.637     
     57800   308.56624     -4959.6671      0             -4932.5849     -3575.0045    
     57900   296.51019     -4958.6036      0             -4932.5796     -3685.8345    
     58000   303.71563     -4958.8086      0             -4932.1522     -3744.498     
     58100   291.93443     -4957.51        0             -4931.8876     -3565.8146    
     58200   299.64653     -4957.8548      0             -4931.5555     -3663.7427    
     58300   306.50736     -4958.1785      0             -4931.277      -3726.1036    
     58400   294.02315     -4956.9659      0             -4931.1602     -3628.5414    
     58500   296.5021      -4956.9006      0             -4930.8773     -3685.9628    
     58600   291.40151     -4955.9251      0             -4930.3495     -3734.6055    
     58700   296.35823     -4956.2286      0             -4930.2179     -3634.5632    
     58800   305.84304     -4956.4774      0             -4929.6342     -3696.9946    
     58900   303.95865     -4955.992       0             -4929.3143     -3791.3897    
     59000   301.96504     -4955.6196      0             -4929.1169     -3671.0856    
     59100   308.59522     -4955.7065      0             -4928.6218     -3697.6668    
     59200   298.30403     -4954.4664      0             -4928.2849     -3785.213     
     59300   304.33519     -4954.9967      0             -4928.2859     -3677.4556    
     59400   309.65115     -4954.9644      0             -4927.7871     -3736.4965    
     59500   292.41209     -4952.9774      0             -4927.3131     -3765.504     
     59600   309.04081     -4954.2074      0             -4927.0837     -3664.4424    
     59700   295.17715     -4952.67        0             -4926.763      -3708.9386    
     59800   311.19185     -4953.6809      0             -4926.3684     -3782.9439    
     59900   307.4915      -4953.092       0             -4926.1042     -3750.6626    
     60000   308.60538     -4952.9155      0             -4925.8299     -3684.503     
     60100   304.84264     -4952.189       0             -4925.4337     -3771.6878    
     60200   299.68892     -4951.6254      0             -4925.3224     -3763.7179    
     60300   303.92606     -4951.5367      0             -4924.8619     -3717.6487    
     60400   296.4853      -4950.6872      0             -4924.6654     -3832.1664    
     60500   287.9866      -4949.5317      0             -4924.2558     -3773.1718    
     60600   293.03977     -4949.4607      0             -4923.7413     -3758.9061    
     60700   301.48613     -4950.0953      0             -4923.6346     -3856.4672    
     60800   307.78372     -4950.1831      0             -4923.1696     -3790.2176    
     60900   303.90898     -4949.6339      0             -4922.9605     -3765.2581    
     61000   313.8095      -4950.1652      0             -4922.6229     -3795.0833    
     61100   308.25774     -4949.3196      0             -4922.2645     -3856.5186    
     61200   294.68597     -4947.8012      0             -4921.9373     -3775.4088    
     61300   302.60714     -4948.142       0             -4921.5829     -3781.562     
     61400   289.22437     -4946.6177      0             -4921.2331     -3868.3623    
     61500   303.50597     -4947.6611      0             -4921.0231     -3830.825     
     61600   297.3469      -4946.6618      0             -4920.5644     -3763.1004    
     61700   301.08226     -4946.7363      0             -4920.311      -3892.5501    
     61800   305.18774     -4946.5754      0             -4919.7898     -3839.7915    
     61900   299.26412     -4945.853       0             -4919.5873     -3792.8709    
     62000   291.9301      -4944.9943      0             -4919.3723     -3936.0673    
     62100   294.54513     -4944.8971      0             -4919.0456     -3854.165     
     62200   292.99483     -4944.33        0             -4918.6146     -3813.0925    
     62300   298.0327      -4944.4803      0             -4918.3226     -3883.9965    
     62400   300.07482     -4944.2062      0             -4917.8694     -3941.7777    
     62500   299.5387      -4943.8497      0             -4917.5599     -3789.7614    
     62600   304.33024     -4943.9695      0             -4917.2592     -3859.4832    
     62700   308.51414     -4944.016       0             -4916.9385     -3970.9812    
     62800   300.84921     -4942.8475      0             -4916.4427     -3840.5009    
     62900   303.62896     -4942.9994      0             -4916.3506     -3857.9351    
     63000   293.77078     -4941.7072      0             -4915.9237     -3964.8481    
     63100   301.7106      -4942.0662      0             -4915.5858     -3849.9018    
     63200   288.77926     -4940.7301      0             -4915.3847     -3830.5399    
     63300   299.2791      -4941.3086      0             -4915.0416     -3988.8842    
     63400   300.78923     -4941.2172      0             -4914.8176     -3847.1397    
     63500   292.09692     -4940.0613      0             -4914.4246     -3863.8825    
     63600   296.25184     -4940.1457      0             -4914.1444     -4003.6011    
     63700   292.49074     -4939.4089      0             -4913.7377     -3907.7585    
     63800   295.88203     -4939.237       0             -4913.2681     -3912.1667    
     63900   284.09963     -4937.82        0             -4912.8853     -4022.8659    
     64000   298.63525     -4938.8064      0             -4912.5959     -3902.9483    
     64100   306.83905     -4939.1271      0             -4912.1966     -3915.5277    
     64200   298.10514     -4938.0939      0             -4911.9299     -4037.706     
     64300   306.35556     -4938.468       0             -4911.5799     -3966.1692    
     64400   291.98145     -4936.8442      0             -4911.2177     -3891.2097    
     64500   306.61872     -4937.6481      0             -4910.7369     -4004.706     
     64600   295.72051     -4936.2717      0             -4910.317      -3995.1826    
     64700   307.0625      -4937.0737      0             -4910.1236     -3858.9754    
     64800   303.63666     -4936.4039      0             -4909.7545     -4008.609     
     64900   296.465       -4935.3021      0             -4909.2821     -4012.2305    
     65000   297.6451      -4935.3356      0             -4909.212      -3863.9433    
     65100   305.56148     -4935.816       0             -4908.9975     -4033.236     
     65200   295.55143     -4934.6406      0             -4908.7007     -4070.4497    
     65300   296.82285     -4934.3745      0             -4908.3231     -3904.4011    
     65400   298.07071     -4933.9632      0             -4907.8022     -4051.0748    
     65500   292.87092     -4933.2598      0             -4907.5552     -4098.3794    
     65600   305.14916     -4933.914       0             -4907.1318     -3885.1906    
     65700   300.00103     -4933.2508      0             -4906.9204     -4057.3744    
     65800   294.56042     -4932.359       0             -4906.5062     -4127.8705    
     65900   296.53317     -4932.4187      0             -4906.3927     -3942.8321    
     66000   310.2363      -4932.9264      0             -4905.6977     -4010.1826    
     66100   297.23705     -4931.4239      0             -4905.3361     -4131.3574    
     66200   295.95883     -4931.0997      0             -4905.1241     -4007.1162    
     66300   301.96501     -4931.1778      0             -4904.6751     -3967.781     
     66400   299.18409     -4930.5345      0             -4904.2758     -4126.8322    
     66500   303.90389     -4930.683       0             -4904.0101     -4054.4861    
     66600   300.78956     -4930.0676      0             -4903.668      -3987.2705    
     66700   292.00426     -4928.8489      0             -4903.2204     -4088.2195    
     66800   298.39457     -4929.0597      0             -4902.8704     -4072.0341    
     66900   297.66958     -4928.7861      0             -4902.6604     -4041.5554    
     67000   302.77306     -4928.8438      0             -4902.2702     -4125.8129    
     67100   298.16779     -4927.885       0             -4901.7156     -4091.198     
     67200   297.02958     -4927.5578      0             -4901.4882     -4058.8799    
     67300   302.58441     -4927.9706      0             -4901.4134     -4103.8015    
     67400   300.43082     -4927.1542      0             -4900.7861     -4118.505     
     67500   305.41177     -4927.1358      0             -4900.3306     -4079.8769    
     67600   300.16604     -4926.3393      0             -4899.9944     -4108.8711    
     67700   310.9836      -4927.322       0             -4900.0277     -4152.3482    
     67800   295.14562     -4925.292       0             -4899.3878     -4110.2039    
     67900   296.03614     -4925.0814      0             -4899.099      -4059.3002    
     68000   300.37023     -4924.9965      0             -4898.6338     -4125.0837    
     68100   299.38495     -4924.8921      0             -4898.6157     -4124.7791    
     68200   299.32835     -4924.2277      0             -4897.9563     -4106.9288    
     68300   304.03944     -4924.4074      0             -4897.7226     -4157.5431    
     68400   302.72208     -4923.9986      0             -4897.4294     -4132.6527    
     68500   293.20038     -4922.7248      0             -4896.9913     -4121.4606    
     68600   295.71358     -4922.7169      0             -4896.7628     -4202.1906    
     68700   298.54688     -4922.4901      0             -4896.2874     -4147.549     
     68800   306.688       -4922.9459      0             -4896.0286     -4104.1051    
     68900   285.12359     -4920.7091      0             -4895.6845     -4192.3531    
     69000   293.68347     -4920.8097      0             -4895.0338     -4231.7842    
     69100   306.51469     -4921.5907      0             -4894.6886     -4103.3153    
     69200   316.22501     -4922.184       0             -4894.4297     -4217.7463    
     69300   308.05717     -4920.9842      0             -4893.9467     -4232.3006    
     69400   299.76216     -4920.1475      0             -4893.8381     -4120.7089    
     69500   301.62423     -4920.0752      0             -4893.6024     -4205.5026    
     69600   296.94012     -4919.3365      0             -4893.2747     -4277.846     
     69700   293.55631     -4918.5191      0             -4892.7544     -4120.3362    
     69800   298.71198     -4918.481       0             -4892.2637     -4148.283     
     69900   312.19016     -4919.4451      0             -4892.0449     -4345.4218    
     70000   298.4273      -4917.7944      0             -4891.6022     -4171.7589    
     70100   297.76454     -4917.5348      0             -4891.4007     -4169.0488    
     70200   305.77163     -4917.8871      0             -4891.0502     -4311.5704    
     70300   294.20356     -4916.5991      0             -4890.7776     -4196.4523    
     70400   275.3108      -4914.622       0             -4890.4587     -4178.468     
     70500   286.72528     -4915.2925      0             -4890.1273     -4345.7043    
     70600   297.40585     -4915.5432      0             -4889.4406     -4165.3284    
     70700   301.53309     -4915.5462      0             -4889.0814     -4161.6235    
     70800   299.12214     -4915.0012      0             -4888.748      -4366.8309    
     70900   294.17882     -4914.2207      0             -4888.4014     -4261.3498    
     71000   303.79936     -4914.8834      0             -4888.2196     -4167.9906    
     71100   293.1686      -4913.3227      0             -4887.592      -4309.249     
     71200   302.18103     -4913.6839      0             -4887.1622     -4306.9978    
     71300   305.1321      -4913.6592      0             -4886.8785     -4157.4354    
     71400   299.09121     -4912.8448      0             -4886.5943     -4348.6595    
     71500   301.62454     -4912.9071      0             -4886.4342     -4312.7402    
     71600   311.08064     -4913.2165      0             -4885.9137     -4140.9624    
     71700   300.47631     -4911.7716      0             -4885.3996     -4395.5053    
     71800   296.43602     -4911.4048      0             -4885.3873     -4342.6145    
     71900   286.64114     -4910.0124      0             -4884.8546     -4160.7802    
     72000   306.25677     -4911.3822      0             -4884.5028     -4362.317     
     72100   294.99281     -4909.7461      0             -4883.8553     -4402.2007    
     72200   303.8445      -4910.3834      0             -4883.7157     -4253.5446    
     72300   301.91419     -4909.6155      0             -4883.1172     -4376.1374    
     72400   312.35167     -4910.1748      0             -4882.7604     -4404.9363    
     72500   305.29647     -4909.3603      0             -4882.5651     -4228.4039    
     72600   296.31729     -4908.2803      0             -4882.2732     -4374.9954    
     72700   307.87446     -4908.8505      0             -4881.8291     -4424.3118    
     72800   304.75097     -4908.5414      0             -4881.7942     -4234.218     
     72900   299.31551     -4907.5996      0             -4881.3294     -4335.1934    
     73000   296.49703     -4906.6177      0             -4880.5948     -4490.5333    
     73100   293.68872     -4906.2764      0             -4880.5        -4276.0595    
     73200   292.46618     -4905.6738      0             -4880.0048     -4270.6747    
     73300   299.12337     -4905.7193      0             -4879.466      -4447.338     
     73400   301.5429      -4905.6121      0             -4879.1464     -4310.2036    
     73500   293.55199     -4904.7248      0             -4878.9604     -4340.9941    
     73600   302.27039     -4905.1239      0             -4878.5943     -4470.2834    
     73700   310.41806     -4905.3455      0             -4878.1009     -4346.3393    
     73800   293.34022     -4903.5716      0             -4877.8258     -4339.0395    
     73900   300.4804      -4903.7513      0             -4877.3788     -4456.6776    
     74000   296.30948     -4903.1132      0             -4877.1069     -4433.456     
     74100   304.5038      -4903.3635      0             -4876.6379     -4356.3142    
     74200   290.77853     -4901.6467      0             -4876.1257     -4435.0459    
     74300   306.31183     -4902.7583      0             -4875.874      -4450.0377    
     74400   302.0301      -4902.1689      0             -4875.6605     -4388.5738    
     74500   305.07        -4901.8935      0             -4875.1182     -4431.7476    
     74600   307.39166     -4901.6413      0             -4874.6623     -4415.5983    
     74700   299.45493     -4900.735       0             -4874.4526     -4404.1835    
     74800   311.32418     -4901.3573      0             -4874.0331     -4458.4012    
     74900   295.96217     -4899.5897      0             -4873.6138     -4459.5908    
     75000   299.21733     -4899.4918      0             -4873.2302     -4415.611     
     75100   287.36584     -4898.116       0             -4872.8946     -4417.496     
     75200   298.22092     -4898.8284      0             -4872.6543     -4545.2644    
     75300   298.09623     -4898.2171      0             -4872.0539     -4439.3772    
     75400   302.25576     -4898.2919      0             -4871.7636     -4394.1178    
     75500   301.15849     -4897.8045      0             -4871.3726     -4484.5903    
     75600   306.90648     -4897.8597      0             -4870.9232     -4489.1863    
     75700   313.57215     -4898.0916      0             -4870.5701     -4449.9266    
     75800   305.40752     -4896.9894      0             -4870.1845     -4530.5162    
     75900   306.31599     -4896.7915      0             -4869.9068     -4490.4353    
     76000   305.95489     -4896.2027      0             -4869.3497     -4436.1013    
     76100   301.16392     -4895.5308      0             -4869.0983     -4538.5397    
     76200   307.7819      -4895.643       0             -4868.6297     -4539.0823    
     76300   303.59465     -4895.136       0             -4868.4902     -4427.0479    
     76400   296.10104     -4893.9462      0             -4867.9581     -4522.3845    
     76500   299.92325     -4894.0022      0             -4867.6786     -4576.0028    
     76600   302.20363     -4893.6513      0             -4867.1276     -4423.9789    
     76700   296.50464     -4892.9525      0             -4866.929      -4463.4504    
     76800   296.54426     -4892.4568      0             -4866.4298     -4591.1636    
     76900   294.56697     -4891.9147      0             -4866.0613     -4481.6942    
     77000   296.79431     -4891.8572      0             -4865.8083     -4520.8251    
     77100   284.07646     -4890.2536      0             -4865.3208     -4634.8031    
     77200   306.21583     -4891.7875      0             -4864.9117     -4456.448     
     77300   299.65688     -4890.7387      0             -4864.4385     -4502.6475    
     77400   296.12755     -4890.1719      0             -4864.1815     -4676.305     
     77500   291.62869     -4889.3673      0             -4863.7718     -4538.1128    
     77600   291.95623     -4889.0742      0             -4863.4499     -4439.2851    
     77700   285.65384     -4887.8962      0             -4862.825      -4639.8765    
     77800   297.47744     -4888.5448      0             -4862.4359     -4582.6646    
     77900   307.67218     -4889.2799      0             -4862.2763     -4434.3668    
     78000   300.32133     -4888.1013      0             -4861.7428     -4637.5066    
     78100   301.50891     -4887.793       0             -4861.3303     -4628.3208    
     78200   299.07585     -4887.3469      0             -4861.0978     -4429.4662    
     78300   301.53467     -4887.2178      0             -4860.7528     -4624.5469    
     78400   301.22614     -4886.7454      0             -4860.3075     -4633.3504    
     78500   310.99692     -4887.2937      0             -4859.9982     -4489.0654    
     78600   291.74735     -4885.3633      0             -4859.7574     -4641.4904    
     78700   291.53735     -4884.8694      0             -4859.2819     -4680.5937    
     78800   301.2179      -4885.2258      0             -4858.7886     -4513.0012    
     78900   296.04176     -4884.2838      0             -4858.3009     -4693.8959    
     79000   304.95477     -4884.5157      0             -4857.7506     -4675.6798    
     79100   303.5595      -4884.2523      0             -4857.6096     -4450.2236    
     79200   300.25358     -4883.3492      0             -4856.9967     -4700.7531    
     79300   307.1981      -4883.7957      0             -4856.8337     -4700.1132    
     79400   294.03889     -4882.118       0             -4856.3109     -4539.0301    
     79500   296.14284     -4882.1091      0             -4856.1174     -4650.0248    
     79600   306.49181     -4882.5709      0             -4855.6708     -4722.8536    
     79700   307.51453     -4882.2843      0             -4855.2945     -4582.7506    
     79800   296.09079     -4880.9792      0             -4854.992      -4581.4617    
     79900   297.98689     -4880.4788      0             -4854.3252     -4717.3346    
     80000   295.51524     -4880.0826      0             -4854.146      -4609.6859    
     80100   304.00713     -4880.3774      0             -4853.6954     -4607.8154    
     80200   301.13768     -4879.7648      0             -4853.3346     -4729.2952    
     80300   301.13523     -4879.3374      0             -4852.9075     -4681.2647    
     80400   290.51854     -4878.3402      0             -4852.8421     -4604.0855    
     80500   297.32985     -4878.5403      0             -4852.4443     -4759.3789    
     80600   293.16335     -4877.5364      0             -4851.8061     -4711.207     
     80700   302.17948     -4877.9654      0             -4851.4438     -4632.134     
     80800   305.45751     -4877.6622      0             -4850.8529     -4752.5111    
     80900   303.0108      -4877.0236      0             -4850.4291     -4704.5439    
     81000   302.98945     -4876.6131      0             -4850.0204     -4618.8165    
     81100   295.5451      -4875.5928      0             -4849.6535     -4781.3144    
     81200   308.71516     -4876.4153      0             -4849.3201     -4755.0724    
     81300   297.08004     -4874.8777      0             -4848.8037     -4619.9709    
     81400   298.43198     -4874.6982      0             -4848.5055     -4763.8164    
     81500   294.43133     -4873.9312      0             -4848.0896     -4772.8336    
     81600   305.52848     -4874.5268      0             -4847.7112     -4686.9029    
     81700   297.83161     -4873.5894      0             -4847.4494     -4753.8507    
     81800   306.33135     -4873.944       0             -4847.058      -4789.7914    
     81900   296.78277     -4872.4159      0             -4846.368      -4718.3042    
     82000   307.68223     -4872.8167      0             -4845.8122     -4763.121     
     82100   302.10998     -4872.4487      0             -4845.9332     -4764.4707    
     82200   289.92308     -4870.8499      0             -4845.404      -4755.1834    
     82300   297.49618     -4871.0128      0             -4844.9023     -4721.1964    
     82400   298.30941     -4870.4528      0             -4844.2709     -4778.9448    
     82500   308.12773     -4871.0871      0             -4844.0435     -4737.7125    
     82600   302.58991     -4870.1531      0             -4843.5955     -4747.6509    
     82700   304.46177     -4869.7667      0             -4843.0448     -4827.3764    
     82800   303.72911     -4869.3689      0             -4842.7113     -4798.3235    
     82900   310.55068     -4869.6835      0             -4842.4272     -4722.1666    
     83000   302.80411     -4868.81        0             -4842.2336     -4842.9684    
     83100   296.38918     -4867.6798      0             -4841.6664     -4806.1334    
     83200   299.55631     -4867.7366      0             -4841.4452     -4730.7529    
     83300   294.55663     -4866.833       0             -4840.9804     -4827.7156    
     83400   309.96115     -4867.8169      0             -4840.6124     -4858.1715    
     83500   287.82822     -4865.5103      0             -4840.2483     -4777.0928    
     83600   301.30619     -4866.1543      0             -4839.7094     -4776.334     
     83700   304.5107      -4866.077       0             -4839.3508     -4885.4847    
     83800   306.30599     -4865.5974      0             -4838.7137     -4834.9582    
     83900   296.43783     -4864.436       0             -4838.4184     -4768.3513    
     84000   294.28194     -4863.9068      0             -4838.0783     -4858.1559    
     84100   286.33766     -4862.7909      0             -4837.6597     -4854.0271    
     84200   300.6105      -4863.5476      0             -4837.1637     -4814.1718    
     84300   294.1239      -4862.5755      0             -4836.7609     -4869.8455    
     84400   296.11081     -4862.1776      0             -4836.1887     -4868.1995    
     84500   307.14334     -4862.8618      0             -4835.9045     -4793.6154    
     84600   304.00413     -4862.0719      0             -4835.3902     -4895.8092    
     84700   308.30291     -4862.1081      0             -4835.049      -4880.4975    
     84800   302.0351      -4861.4595      0             -4834.9506     -4837.8191    
     84900   303.07928     -4861.1344      0             -4834.5338     -4859.6278    
     85000   290.36118     -4859.4075      0             -4833.9232     -4876.685     
     85100   300.26413     -4859.7431      0             -4833.3896     -4835.1672    
     85200   302.61959     -4859.8434      0             -4833.2832     -4910.1965    
     85300   304.6773      -4859.5297      0             -4832.7889     -4927.5792    
     85400   297.96433     -4858.4436      0             -4832.292      -4824.2362    
     85500   312.57316     -4859.5192      0             -4832.0854     -4906.043     
     85600   293.2143      -4857.4772      0             -4831.7425     -4959.1493    
     85700   299.32263     -4857.4096      0             -4831.1388     -4811.1176    
     85800   299.86647     -4856.8809      0             -4830.5623     -4919.2264    
     85900   297.36753     -4856.4645      0             -4830.3653     -4997.6951    
     86000   309.03772     -4856.9477      0             -4829.8242     -4795.8112    
     86100   297.70978     -4855.4938      0             -4829.3646     -4864.0867    
     86200   295.83746     -4854.7795      0             -4828.8145     -5048.5023    
     86300   314.04856     -4856.3232      0             -4828.7599     -4896.3435    
     86400   305.8846      -4855.0391      0             -4828.1924     -4865.066     
     86500   303.24572     -4854.4064      0             -4827.7912     -4999.1363    
     86600   305.52581     -4854.2866      0             -4827.4713     -4902.9837    
     86700   314.29581     -4854.5572      0             -4826.9722     -4869.7202    
[...]
    263700   314.59831     -5031.8466      0             -5004.235      -41.617981    
    263800   292.67709     -5028.2643      0             -5002.5767     -84.93414     
    263900   289.06454     -5030.8013      0             -5005.4308     -71.346507    
    264000   339.92924     -5031.6105      0             -5001.7757     -256.6263     
    264100   291.47686     -5030.1681      0             -5004.5859     -180.72218    
    264200   297.49218     -5029.7966      0             -5003.6864     -218.50715    
    264300   287.2708      -5028.9678      0             -5003.7547     -401.60292    
    264400   290.23651     -5025.6944      0             -5000.2211     -378.17745    
    264500   292.50234     -5028.0488      0             -5002.3765     -338.86386    
    264600   297.28046     -5028.9656      0             -5002.874      -464.88848    
    264700   317.52542     -5027.9312      0             -5000.0627     -109.33335    
    264800   307.03724     -5031.4014      0             -5004.4534     -133.76532    
    264900   303.78764     -5031.696       0             -5005.0332     -107.12855    
    265000   304.47224     -5031.2197      0             -5004.4969      129.67906    
    265100   292.13486     -5027.5235      0             -5001.8836      264.11928    
    265200   296.65267     -5030.6608      0             -5004.6243      198.28259    
    265300   293.99806     -5028.6703      0             -5002.8668      112.55408    
    265400   279.2277      -5026.5245      0             -5002.0174      184.35074    
    265500   299.40905     -5026.6603      0             -5000.3819      223.16806    
    265600   300.52389     -5029.8312      0             -5003.4549      190.70856    
    265700   298.04372     -5028.536       0             -5002.3774      307.37648    
    265800   305.122       -5029.0991      0             -5002.3193      278.66589    
    265900   306.17346     -5030.8914      0             -5004.0193      159.13599    
    266000   334.73331     -5030.2142      0             -5000.8355      228.54323    
    266100   295.07953     -5029.9278      0             -5004.0294      166.88       
    266200   321.00481     -5031.3777      0             -5003.2038     -165.72798    
    266300   289.94923     -5027.2206      0             -5001.7725     -21.574965    
    266400   312.89516     -5029.3056      0             -5001.8435     -184.99949    
    266500   291.32672     -5025.2714      0             -4999.7024     -260.46496    
    266600   280.89142     -5026.0878      0             -5001.4346     -145.07264    
    266700   294.01584     -5026.4542      0             -5000.6491     -336.47159    
    266800   293.80246     -5025.0908      0             -4999.3045     -368.95557    
    266900   317.97739     -5028.1826      0             -5000.2745     -195.38348    
    267000   297.65889     -5026.7078      0             -5000.583      -342.14639    
    267100   299.9134      -5026.0044      0             -4999.6817     -307.36333    
    267200   326.20071     -5028.6546      0             -5000.0248     -31.236862    
    267300   325.96607     -5027.7022      0             -4999.0929     -39.779831    
    267400   300.45816     -5026.7282      0             -5000.3577      31.584198    
    267500   300.03595     -5025.9757      0             -4999.6422      378.92436    
    267600   304.94634     -5028.0768      0             -5001.3123      49.066892    
    267700   294.84298     -5026.6018      0             -5000.7241      172.87302    
    267800   303.56937     -5025.7256      0             -4999.082       287.24553    
    267900   280.86177     -5026.7055      0             -5002.0549      62.997637    
    268000   306.20377     -5027.0761      0             -5000.2013      165.85692    
    268100   280.72077     -5025.2025      0             -5000.5643      408.72757    
    268200   307.5827      -5026.2533      0             -4999.2575      156.55716    
    268300   293.6823      -5025.5235      0             -4999.7477      247.23293    
    268400   311.26657     -5028.6041      0             -5001.2849      274.19802    
    268500   293.7751      -5026.3229      0             -5000.539      -30.965235    
    268600   323.44153     -5027.4826      0             -4999.0949      5.2136796    
    268700   302.96282     -5027.1587      0             -5000.5684     -156.61374    
    268800   303.10121     -5027.1553      0             -5000.5528     -311.61969    
    268900   290.79858     -5025.6573      0             -5000.1346     -269.77182    
    269000   299.66001     -5027.0129      0             -5000.7125     -199.57825    
    269100   292.29852     -5026.093       0             -5000.4386     -368.20675    
    269200   288.39713     -5023.9465      0             -4998.6346     -316.1558     
    269300   310.6155      -5026.904       0             -4999.6421     -190.966      
    269400   294.44513     -5024.0896      0             -4998.2468     -294.6737     
    269500   311.38468     -5027.3124      0             -4999.9829     -52.673506    
    269600   302.62952     -5026.5177      0             -4999.9566     -144.96763    
    269700   297.58688     -5026.1884      0             -5000.0699     -76.9924      
    269800   292.1917      -5025.9478      0             -5000.3028      134.87609    
    269900   308.9565      -5028.6029      0             -5001.4865      146.51537    
    270000   296.55378     -5025.9219      0             -4999.894       212.91679    
    270100   313.56566     -5026.8563      0             -4999.3353      366.38464    
    270200   293.54919     -5025.0161      0             -4999.252       234.06686    
    270300   289.92314     -5024.2203      0             -4998.7744      173.68685    
    270400   299.63302     -5027.5785      0             -5001.2804      242.04121    
    270500   299.77352     -5024.7517      0             -4998.4413      209.93367    
    270600   302.67567     -5024.6974      0             -4998.1323      204.63076    
    270700   292.81133     -5026.4949      0             -5000.7955      59.269587    
    270800   289.53171     -5025.8874      0             -5000.4759      120.0595     
    270900   316.44853     -5027.8438      0             -5000.0699      78.550862    
    271000   300.01941     -5025.9102      0             -4999.5782     -70.10148     
    271100   287.04757     -5025.3412      0             -5000.1477     -212.37162    
    271200   293.8637      -5025.9918      0             -5000.2001     -208.89266    
    271300   283.62901     -5024.8757      0             -4999.9823     -324.55587    
    271400   298.07043     -5027.0774      0             -5000.9165     -374.5635     
    271500   290.91112     -5025.1678      0             -4999.6352     -296.22143    
    271600   286.69878     -5023.8639      0             -4998.701      -228.82611    
    271700   324.49151     -5026.7667      0             -4998.2869     -326.52696    
    271800   314.199       -5026.1974      0             -4998.6209     -139.80691    
    271900   313.97026     -5028.1447      0             -5000.5882     -131.69553    
    272000   297.49323     -5025.3985      0             -4999.2882     -164.69052    
    272100   329.77824     -5028.3523      0             -4999.4085      78.450653    
    272200   312.38315     -5027.7171      0             -5000.3         100.10159    
    272300   291.29192     -5026.7007      0             -5001.1347      131.5279     
    272400   304.05601     -5026.9812      0             -5000.2949      330.106      
    272500   288.59644     -5026.0749      0             -5000.7454      188.69211    
    272600   307.55512     -5026.7187      0             -4999.7254      228.91182    
    272700   301.12479     -5025.9462      0             -4999.5172      364.15666    
    272800   287.77655     -5026.1088      0             -5000.8513      79.964327    
    272900   293.09023     -5025.1285      0             -4999.4047      85.409956    
    273000   301.69809     -5025.7638      0             -4999.2845      204.88145    
    273100   327.25393     -5028.4687      0             -4999.7464      67.244299    
    273200   301.65826     -5026.3459      0             -4999.8701     -38.431127    
    273300   298.60028     -5027.7118      0             -5001.5044      239.91755    
    273400   312.42228     -5027.0593      0             -4999.6387     -182.74177    
    273500   297.18106     -5026.1762      0             -5000.0933     -343.4835     
    273600   283.94286     -5026.0501      0             -5001.1291     -128.97322    
    273700   288.18267     -5025.9689      0             -5000.6758     -415.96775    
    273800   321.34627     -5028.1745      0             -4999.9707     -335.56584    
    273900   305.84554     -5024.8632      0             -4998.0198     -195.86799    
    274000   302.51562     -5028.5106      0             -5001.9595     -297.08696    
    274100   295.09411     -5024.3915      0             -4998.4918     -208.4385     
    274200   309.30022     -5027.5559      0             -5000.4094     -51.430644    
    274300   310.34178     -5026.766       0             -4999.528      -207.12713    
    274400   286.19926     -5025.3232      0             -5000.2041     -72.925598    
    274500   304.28252     -5026.7715      0             -5000.0653      73.866065    
    274600   310.31943     -5028.6167      0             -5001.3807      97.195256    
    274700   289.49325     -5023.8556      0             -4998.4474      81.424544    
    274800   292.9594      -5026.3424      0             -5000.63        317.88035    
    274900   299.51037     -5025.6831      0             -4999.3958      339.81865    
    275000   286.11378     -5025.109       0             -4999.9975      237.81939    
    275100   298.06658     -5025.7918      0             -4999.6312      258.38047    
    275200   294.34292     -5023.9496      0             -4998.1158      258.26522    
    275300   294.75827     -5026.434       0             -5000.5637      114.81571    
    275400   309.55157     -5025.7614      0             -4998.5928      69.100975    
    275500   295.44179     -5024.5298      0             -4998.5996      91.507223    
    275600   292.39601     -5024.6768      0             -4999.0139     -21.199971    
    275700   305.47244     -5029.0774      0             -5002.2668     -50.627262    
    275800   286.38251     -5024.3664      0             -4999.2313     -38.643272    
    275900   303.9916      -5026.0349      0             -4999.3543     -212.81033    
    276000   294.97012     -5026.4836      0             -5000.5948     -280.21444    
    276100   301.15087     -5024.7877      0             -4998.3564     -250.13596    
    276200   305.80063     -5025.4267      0             -4998.5873     -357.80693    
    276300   306.15049     -5026.0273      0             -4999.1572     -312.60847    
    276400   305.86991     -5025.496       0             -4998.6505     -178.75594    
    276500   307.2212      -5025.8676      0             -4998.9035     -232.63434    
    276600   324.08059     -5027.9803      0             -4999.5365     -130.90191    
    276700   306.93022     -5026.9096      0             -4999.9711      123.16415    
    276800   330.63523     -5028.2091      0             -4999.1901     -44.865284    
    276900   300.53979     -5027.4066      0             -5001.029       8.7917405    
    277000   301.07945     -5027.1535      0             -5000.7285      218.70098    
    277100   292.57241     -5025.658       0             -4999.9796      164.13041    
    277200   286.3788      -5024.2529      0             -4999.1181      38.390173    
    277300   299.54622     -5027.8995      0             -5001.609       422.81135    
    277400   281.37267     -5023.1987      0             -4998.5033      249.95718    
    277500   297.70112     -5026.1658      0             -5000.0372      215.04248    
    277600   299.10754     -5025.8733      0             -4999.6213      292.01987    
    277700   293.5869      -5025.0656      0             -4999.2982      131.52205    
    277800   304.57489     -5027.4479      0             -5000.7161     -59.852059    
    277900   306.38133     -5027.8341      0             -5000.9437      134.84584    
    278000   316.22794     -5028.7175      0             -5000.9629     -63.619053    
    278100   304.31129     -5026.8931      0             -5000.1844     -144.37628    
    278200   291.45074     -5026.5076      0             -5000.9276     -33.968025    
    278300   283.35073     -5026.5872      0             -5001.7181     -271.01395    
    278400   288.67388     -5026.6353      0             -5001.2991     -318.61147    
    278500   300.96296     -5026.7177      0             -5000.3029     -181.85293    
    278600   293.08718     -5026.4759      0             -5000.7523     -424.49997    
    278700   293.14181     -5025.2208      0             -4999.4924     -414.14466    
    278800   296.12133     -5026.2899      0             -5000.3001     -168.05084    
    278900   293.7289      -5023.6235      0             -4997.8436     -234.28624    
    279000   312.26554     -5026.2471      0             -4998.8403     -8.1638555    
    279100   303.39929     -5025.5554      0             -4998.9268      83.923081    
    279200   295.80207     -5026.2711      0             -5000.3092      29.933532    
    279300   310.82823     -5026.9905      0             -4999.7098      210.41773    
    279400   313.46354     -5027.7115      0             -5000.1995      171.06048    
    279500   305.21034     -5025.9751      0             -4999.1875      94.102593    
    279600   303.25499     -5028.4395      0             -5001.8235      214.03023    
    279700   283.38572     -5025.9422      0             -5001.0701      246.30197    
    279800   282.56993     -5026.4684      0             -5001.6679      258.11873    
    279900   316.72929     -5026.7802      0             -4998.9816      256.4808     
    280000   291.86367     -5024.5538      0             -4998.9376      270.6589     
    280100   306.06899     -5028.3045      0             -5001.4415      142.55831    
    280200   291.9399      -5026.4349      0             -5000.812       53.997198    
    280300   307.8136      -5028.667       0             -5001.651      -0.083471938  
    280400   304.56698     -5028.5095      0             -5001.7783     -73.562224    
    280500   286.82272     -5026.657       0             -5001.4832     -184.57229    
    280600   290.60884     -5027.71        0             -5002.2039     -132.24056    
    280700   293.76917     -5026.7874      0             -5001.004      -212.64167    
    280800   292.664       -5025.9577      0             -5000.2712     -363.20959    
    280900   298.7146      -5026.9876      0             -5000.7701     -168.88211    
    281000   302.5298      -5025.4241      0             -4998.8718     -351.02197    
    281100   303.00006     -5026.7081      0             -5000.1145     -331.17898    
    281200   295.40649     -5026.9584      0             -5001.0313     -163.28578    
    281300   294.34054     -5025.1         0             -4999.2664     -161.72083    
    281400   295.464       -5026.9023      0             -5000.9701      7.0458012    
    281500   300.41165     -5026.4742      0             -5000.1078      45.094071    
    281600   314.64695     -5027.9793      0             -5000.3634      101.10619    
    281700   298.12536     -5026.575       0             -5000.4092      114.77605    
    281800   302.24822     -5025.9136      0             -4999.386       218.35375    
    281900   292.36869     -5025.8914      0             -5000.2309      208.85425    
    282000   299.11729     -5026.6083      0             -5000.3555      301.64472    
    282100   304.42196     -5024.4609      0             -4997.7425      215.89784    
    282200   302.78643     -5025.3382      0             -4998.7633      282.01129    
    282300   293.36811     -5025.5192      0             -4999.771       226.24077    
    282400   308.5051      -5026.7913      0             -4999.7145      68.848901    
    282500   308.33068     -5028.1427      0             -5001.0813      166.87461    
    282600   297.91033     -5026.5544      0             -5000.4076      80.974371    
    282700   287.57751     -5025.361       0             -5000.121      -154.68199    
    282800   302.72524     -5027.236       0             -5000.6665     -178.08671    
    282900   318.96367     -5028.2512      0             -5000.2565     -169.96699    
    283000   293.29011     -5026.521       0             -5000.7796     -349.32947    
    283100   305.36535     -5027.2039      0             -5000.4027     -207.89429    
    283200   283.38411     -5024.4945      0             -4999.6226     -309.10302    
    283300   296.57466     -5025.9861      0             -4999.9564     -276.86544    
    283400   315.1603      -5028.0523      0             -5000.3914     -161.186      
    283500   301.45827     -5026.1863      0             -4999.728      -281.2296     
    283600   298.32332     -5026.1759      0             -4999.9927     -216.13623    
    283700   310.96377     -5025.9262      0             -4998.6336      14.275278    
    283800   302.07233     -5026.2954      0             -4999.7832      79.7217      
    283900   310.34777     -5026.9146      0             -4999.6761      115.31171    
    284000   295.5597      -5026.4233      0             -5000.4827      183.29961    
    284100   304.79501     -5027.4893      0             -5000.7381      207.09415    
    284200   302.50273     -5027.335       0             -5000.7851      176.38744    
    284300   288.14428     -5025.8936      0             -5000.6039      304.98583    
    284400   306.91748     -5026.2861      0             -4999.3487      145.73304    
    284500   294.29471     -5027.3426      0             -5001.5131      119.56875    
    284600   292.10051     -5024.9375      0             -4999.3005      271.24637    
    284700   313.11728     -5027.132       0             -4999.6505      114.13427    
    284800   302.71445     -5026.0112      0             -4999.4427      111.9271     
    284900   299.95325     -5027.079       0             -5000.7528      115.64894    
    285000   295.20368     -5028.538       0             -5002.6287      56.587981    
Loop time of 1426.41 on 1 procs for 280000 steps with 700 atoms

Performance: 8.480 ns/day, 2.830 hours/ns, 196.297 timesteps/s, 137.408 katom-step/s
99.9% CPU use with 1 MPI tasks x 1 OpenMP threads

MPI task timing breakdown:
Section |  min time  |  avg time  |  max time  |%varavg| %total
---------------------------------------------------------------
Pair    | 1420.8     | 1420.8     | 1420.8     |   0.0 | 99.60
Bond    | 0.027678   | 0.027678   | 0.027678   |   0.0 |  0.00
Neigh   | 1.1725     | 1.1725     | 1.1725     |   0.0 |  0.08
Comm    | 0.30102    | 0.30102    | 0.30102    |   0.0 |  0.02
Output  | 0.17193    | 0.17193    | 0.17193    |   0.0 |  0.01
Modify  | 3.1527     | 3.1527     | 3.1527     |   0.0 |  0.22
Other   |            | 0.816      |            |       |  0.06

Nlocal:            700 ave         700 max         700 min
Histogram: 1 0 0 0 0 0 0 0 0 0
Nghost:            145 ave         145 max         145 min
Histogram: 1 0 0 0 0 0 0 0 0 0
Neighs:              0 ave           0 max           0 min
Histogram: 1 0 0 0 0 0 0 0 0 0
FullNghs:       112352 ave      112352 max      112352 min
Histogram: 1 0 0 0 0 0 0 0 0 0

Total # of neighbors = 112352
Ave neighs/atom = 160.50286
Ave special neighs/atom = 0
Neighbor list builds = 780
Dangerous builds = 0
Total wall time: 0:24:06
