LAMMPS data file via write_data, version 28 Mar 2023, timestep = 10000

4948 atoms
5 atom types
2432 bonds
1 bond types
1216 angles
1 angle types

-16.16 16.16 xlo xhi
-16.16 16.16 ylo yhi
-52.52 52.52 zlo zhi

Masses

1 15.9994
2 1.008
3 28.99
4 35.453
5 26.9815

Pair Coeffs # lj/cut/tip4p/long

1 0.185199 3.1589
2 0 0
3 0.0469 2.4299
4 0.15 4.0447
5 11.697 2.574

Bond Coeffs # harmonic

1 0 0.9572

Angle Coeffs # harmonic

1 0 104.52

Atoms # full

2 0 5 0 -14.14538024729971 -14.126381798800795 -48.25456016992564 0 0 0
5 0 5 0 -12.121202028555082 -16.147626965997585 -48.25407123066094 0 0 0
6 0 5 0 -10.099507523311347 -14.126798084991606 -48.24867933893553 0 0 0
8 0 5 0 -12.123856843447358 -14.12751501786875 -46.25456423988288 0 0 0
34 0 5 0 -14.146576667413715 -10.085940683492945 -48.24922698566439 0 0 0
35 0 5 0 -14.14686515050084 -12.106898305616378 -46.2539219598142 0 0 0
37 0 5 0 -12.122733669610879 -12.105830407629917 -48.25054844895447 0 0 0
38 0 5 0 -10.101462755110417 -10.087144378694218 -48.24444169155535 0 0 0
39 0 5 0 -10.103684357538166 -12.107816095918702 -46.24652025168989 0 0 0
40 0 5 0 -12.125744473665117 -10.088559354533436 -46.24716108714853 0 0 0
3 0 5 0 -14.14576550879415 -16.149765478435228 -46.25922074022301 0 0 0
7 0 5 0 -10.101644214844534 -16.149574841915307 -46.25154312269714 0 0 0
44 0 5 0 -8.083345018881165 -10.08909530229409 -46.240095457281285 0 0 0
12 0 5 0 -8.082080207184001 -14.128983451195381 -46.24385324549671 0 0 0
9 0 5 0 -8.078477703343356 -16.148457495354755 -48.24560629522041 0 0 0
41 0 5 0 -8.079807683677526 -12.107141751050442 -48.24265695861135 0 0 0
10 0 5 0 -6.059826383380329 -14.12846724850878 -48.24065412002406 0 0 0
14 0 5 0 -2.0222496393505667 -14.129213945851891 -48.23446435251274 0 0 0
16 0 5 0 -4.043359275170381 -14.130622530006146 -46.236856874547456 0 0 0
42 0 5 0 -6.059757448256471 -10.088560080690117 -48.23731185911464 0 0 0
43 0 5 0 -6.062656250478255 -12.10978060352778 -46.23896092572805 0 0 0
45 0 5 0 -4.040455033678261 -12.10874724633993 -48.23627968695875 0 0 0
46 0 5 0 -2.0208103042319263 -10.08985663640406 -48.23261927448168 0 0 0
47 0 5 0 -2.0233022942520007 -12.110689426443823 -46.232807812067904 0 0 0
48 0 5 0 -4.042232909721844 -10.090878391889271 -46.23343550330671 0 0 0
11 0 5 0 -6.06242443956037 -16.15015320887246 -46.23971313224192 0 0 0
13 0 5 0 -4.041279072120917 -16.14943019334028 -48.23781055409334 0 0 0
15 0 5 0 -2.0254824599715486 -16.150331785727314 -46.23310303235682 0 0 0
52 0 5 0 -0.0027049374956656233 -10.090729781544159 -46.23020227666109 0 0 0
49 0 5 0 -0.0030791691679516284 -12.109404926457616 -48.231731398078736 0 0 0
20 0 5 0 -0.00542175404056764 -14.129863444041096 -46.23025878962567 0 0 0
17 0 5 0 -0.005778817269362773 -16.148917993945624 -48.23245137279216 0 0 0
18 0 5 0 2.012847354896692 -14.128735583730816 -48.23176186309145 0 0 0
22 0 5 0 6.047368259027947 -14.127753085618934 -48.23797276806902 0 0 0
24 0 5 0 4.032686382988345 -14.129398053014237 -46.23185368807733 0 0 0
50 0 5 0 2.015841022906198 -10.089678915205928 -48.23025261586864 0 0 0
51 0 5 0 2.0152577500289874 -12.110250716541245 -46.22907413012189 0 0 0
53 0 5 0 4.031623561445075 -12.108581918117768 -48.23241682118143 0 0 0
54 0 5 0 6.050336075862664 -10.088418602376994 -48.234302980847296 0 0 0
55 0 5 0 6.052880618710515 -12.108916120582725 -46.23406710754682 0 0 0
56 0 5 0 4.035714129055189 -10.089528315031531 -46.22992260320141 0 0 0
19 0 5 0 2.012077464118194 -16.149599489034195 -46.2309569243378 0 0 0
21 0 5 0 4.028219088579073 -16.148372153563788 -48.23536988332907 0 0 0
23 0 5 0 6.04913084024253 -16.149299037049072 -46.23857599344576 0 0 0
28 0 5 0 8.069215939439061 -14.128753536132859 -46.24185369231715 0 0 0
25 0 5 0 8.06442859642634 -16.148303063343537 -48.24442684749723 0 0 0
57 0 5 0 8.067061707468612 -12.107006305271243 -48.24011306049402 0 0 0
60 0 5 0 8.071182506938772 -10.088933245416632 -46.23473988752938 0 0 0
1 0 5 0 16.151563888134337 -16.147816551881135 -48.25776125197534 -1 0 0
4 0 5 0 16.15100587858175 -14.128067381183994 -46.25752805815274 -1 0 0
33 0 5 0 16.150425985634072 -12.105518817915742 -48.252279916758134 -1 0 0
36 0 5 0 16.15063508785778 -10.087642269299067 -46.24919296974527 -1 0 0
26 0 5 0 10.08499299315882 -14.127110448890821 -48.24671580733708 0 0 0
30 0 5 0 14.1275261254171 -14.1265101676945 -48.25401120531345 0 0 0
32 0 5 0 12.107885974463908 -14.128177540071938 -46.25159208551432 0 0 0
58 0 5 0 10.086374362316539 -10.087009964305157 -48.24135702453591 0 0 0
59 0 5 0 10.088897314647847 -12.107899640175825 -46.24293654890426 0 0 0
61 0 5 0 12.105839682316676 -12.10601149308059 -48.24814683255173 0 0 0
62 0 5 0 14.127806760591561 -10.086124944167418 -48.24753817284945 0 0 0
63 0 5 0 14.128780338904305 -12.107663716645204 -46.2516098938408 0 0 0
64 0 5 0 12.108737612855979 -10.088522487144711 -46.24361696417958 0 0 0
29 0 5 0 12.105071534547609 -16.14822070728131 -48.25295344851356 0 0 0
27 0 5 0 10.086947045334432 -16.149774710425113 -46.24913211127865 0 0 0
31 0 5 0 14.12949830609735 -16.149528798023635 -46.25881053797665 0 0 0
66 0 5 0 -14.146409565099571 -6.050824800018741 -48.244287342454975 0 0 0
67 0 5 0 -14.147541446759998 -8.069551926592098 -46.24514526869027 0 0 0
69 0 5 0 -12.124102349991416 -8.068398793346836 -48.24444888980358 0 0 0
70 0 5 0 -10.10190886930314 -6.051821981671356 -48.241248676423645 0 0 0
71 0 5 0 -10.104278653742934 -8.070042010141243 -46.241752708665366 0 0 0
72 0 5 0 -12.12539288508219 -6.051120993983303 -46.24197490728474 0 0 0
98 0 5 0 -14.145809881998618 -2.016362257442516 -48.24715980358767 0 0 0
99 0 5 0 -14.146353525555533 -4.0326497348195085 -46.24371293898482 0 0 0
101 0 5 0 -12.123732521575397 -4.0342871825709095 -48.243604453769365 0 0 0
102 0 5 0 -10.101874146931289 -2.017402987070001 -48.2440578988992 0 0 0
103 0 5 0 -10.103512155092883 -4.033751872513379 -46.24036214333138 0 0 0
104 0 5 0 -12.124836043465535 -2.015028114594985 -46.24430831757027 0 0 0
76 0 5 0 -8.082348741495125 -6.052449055356831 -46.2375263296295 0 0 0
108 0 5 0 -8.082773271494588 -2.016821920385999 -46.24099073113893 0 0 0
77 0 5 0 -4.0396056514977365 -8.071247352842821 -48.23350570662564 0 0 0
73 0 5 0 -8.080224036985717 -8.069832585531092 -48.239352643034444 0 0 0
79 0 5 0 -2.021354172360694 -8.071714356697129 -46.230400688494186 0 0 0
105 0 5 0 -8.080297775462602 -4.035669460372629 -48.240142673568414 0 0 0
74 0 5 0 -6.059316684530031 -6.053667530850039 -48.236536328305604 0 0 0
75 0 5 0 -6.06221055139238 -8.071286661709376 -46.234102439576006 0 0 0
78 0 5 0 -2.019584782760962 -6.053466555764543 -48.23187305418963 0 0 0
80 0 5 0 -4.041211745179226 -6.053396024521541 -46.23199735539894 0 0 0
106 0 5 0 -6.059480075072017 -2.017580483548539 -48.23942921169684 0 0 0
107 0 5 0 -6.0612960308501584 -4.035526452862553 -46.23657097467343 0 0 0
109 0 5 0 -4.038977309466671 -4.036190734556766 -48.23576304966882 0 0 0
110 0 5 0 -2.01957718489389 -2.0164568693679943 -48.235243582174164 0 0 0
111 0 5 0 -2.0207228184455253 -4.0343502791657135 -46.23180171217264 0 0 0
112 0 5 0 -4.040919799816998 -2.017152512639339 -46.23669050883829 0 0 0
84 0 5 0 -0.0008753357114782796 -6.051830650400515 -46.22851706799249 0 0 0
113 0 5 0 -0.0007782049461565924 -4.034584465908031 -48.23179122718248 0 0 0
116 0 5 0 -0.001356916798436402 -2.014789879375477 -46.23147319898576 0 0 0
81 0 5 0 -0.0012607148643391426 -8.070937665990463 -48.2305348928352 0 0 0
82 0 5 0 2.016976577338658 -6.051820355287382 -48.230457874205136 0 0 0
83 0 5 0 2.017641040634299 -8.069897285995374 -46.22860934591936 0 0 0
85 0 5 0 4.033895780674797 -8.069957174600141 -48.23109532858726 0 0 0
86 0 5 0 6.050798339091568 -6.051279691019246 -48.23257066428937 0 0 0
87 0 5 0 6.053622624308305 -8.069993468960904 -46.230018977131984 0 0 0
88 0 5 0 4.035436036723253 -6.0510026052525205 -46.227452654144535 0 0 0
114 0 5 0 2.0162081563374272 -2.0150633029517198 -48.232677473567435 0 0 0
115 0 5 0 2.017345752634729 -4.032766443926541 -46.22749843780854 0 0 0
117 0 5 0 4.03352481982706 -4.033229181159486 -48.23150352523715 0 0 0
118 0 5 0 6.050043188189655 -2.014088298970961 -48.23437568803777 0 0 0
119 0 5 0 6.052321583672011 -4.032282286795082 -46.230450292495604 0 0 0
120 0 5 0 4.034153969746072 -2.0129449022009904 -46.23044868618508 0 0 0
89 0 5 0 8.068286917579238 -8.06928465708683 -48.23593135551913 0 0 0
92 0 5 0 8.071255803901877 -6.051447779952403 -46.232780262348584 0 0 0
121 0 5 0 8.068242016415802 -4.032729991261056 -48.23521932488108 0 0 0
124 0 5 0 8.069818450427045 -2.0126176103926063 -46.23476073365444 0 0 0
95 0 5 0 14.12972170212713 -8.069284840885004 -46.24358761213786 0 0 0
65 0 5 0 16.150523110268807 -8.067699972472893 -48.24617226519112 -1 0 0
68 0 5 0 16.151533185352523 -6.0508740117824455 -46.24350454781001 -1 0 0
97 0 5 0 16.15118737217451 -4.033582612553921 -48.245145179497406 -1 0 0
100 0 5 0 16.152170889197553 -2.013915990433494 -46.247522554661295 -1 0 0
90 0 5 0 10.087109467422058 -6.050861110065313 -48.23819063386031 0 0 0
91 0 5 0 10.0897825710667 -8.069920774722313 -46.236752660908074 0 0 0
93 0 5 0 12.10684149963781 -8.068291772717654 -48.24218582527216 0 0 0
94 0 5 0 14.128443352360339 -6.050592026644582 -48.24345665697865 0 0 0
96 0 5 0 12.109473506084543 -6.050977352804168 -46.23940410503693 0 0 0
122 0 5 0 10.086517030248505 -2.014110591469122 -48.23955230275772 0 0 0
123 0 5 0 10.089845882864376 -4.0324291219408845 -46.23657046159058 0 0 0
125 0 5 0 12.10704128838442 -4.032859474702034 -48.24158590963437 0 0 0
126 0 5 0 14.128614241137669 -2.0148707785386857 -48.24582205045374 0 0 0
127 0 5 0 14.130333461992329 -4.0324395058117695 -46.243374486141306 0 0 0
128 0 5 0 12.10955954738047 -2.0132540411652236 -46.24240653415274 0 0 0
133 0 5 0 -12.123609397450075 0.001809818030552628 -48.24882078409416 0 0 0
135 0 5 0 -10.104342016786582 0.0027936764890523547 -46.24617926876956 0 0 0
131 0 5 0 -14.146199961024514 0.00410499944631338 -46.250010166019 0 0 0
130 0 5 0 -14.145916555005453 2.022851189376906 -48.251992331677414 0 0 0
134 0 5 0 -10.10181352129517 2.0220553887588886 -48.24893205838652 0 0 0
136 0 5 0 -12.125244255158677 2.023241649317489 -46.252123416474404 0 0 0
162 0 5 0 -14.144707314065402 6.064472502704819 -48.256022118622425 0 0 0
163 0 5 0 -14.146398966014294 4.044981979362923 -46.25482931806563 0 0 0
165 0 5 0 -12.123365542265761 4.043522449807173 -48.252759772045714 0 0 0
166 0 5 0 -10.101250530255921 6.06552506877593 -48.25229419455723 0 0 0
167 0 5 0 -10.104548760277376 4.045081451424233 -46.252181979320795 0 0 0
168 0 5 0 -12.12448485437094 6.066272641165615 -46.25487020035959 0 0 0
140 0 5 0 -8.084409042684314 2.0234676924712907 -46.24613831311596 0 0 0
172 0 5 0 -8.084044338262526 6.068293057036078 -46.249845567596985 0 0 0
137 0 5 0 -8.080613049452024 0.001700184557844403 -48.243650199736564 0 0 0
169 0 5 0 -8.08059263709106 4.044191653625125 -48.24727654376057 0 0 0
139 0 5 0 -6.062804578269009 0.0024289058357350717 -46.24069586518378 0 0 0
141 0 5 0 -4.03964723207284 0.0030273176515610858 -48.2375310255712 0 0 0
143 0 5 0 -2.0208719163128617 0.0035096614575981606 -46.23565754525452 0 0 0
138 0 5 0 -6.060195198557979 2.0231401401539584 -48.24134671948013 0 0 0
142 0 5 0 -2.0209464111354833 2.024857117622852 -48.23546852304786 0 0 0
144 0 5 0 -4.0428753782304465 2.024448778244458 -46.23864269366754 0 0 0
170 0 5 0 -6.060237256188058 6.067091465218392 -48.24458997221815 0 0 0
171 0 5 0 -6.064552980633005 4.046638381304852 -46.2438846326372 0 0 0
173 0 5 0 -4.04075102643985 4.045528759665229 -48.238668617127004 0 0 0
174 0 5 0 -2.022746937179111 6.068322308255589 -48.23816914789776 0 0 0
175 0 5 0 -2.0223667966698415 4.048110797739616 -46.23723120309625 0 0 0
176 0 5 0 -4.044016625134427 6.070051809454692 -46.24141354312637 0 0 0
145 0 5 0 -0.0016268523601922196 0.004588055214613801 -48.2346282855024 0 0 0
148 0 5 0 -0.001338359167525703 2.0264987295021943 -46.23500710803724 0 0 0
177 0 5 0 -0.0035617303616099502 4.047073099031365 -48.236304822552825 0 0 0
180 0 5 0 -0.004443559978298742 6.070164131337559 -46.236769981327704 0 0 0
146 0 5 0 2.015128240611218 2.0262171471573804 -48.236055331372114 0 0 0
147 0 5 0 2.0168395662301837 0.006352174552175449 -46.23288700177037 0 0 0
149 0 5 0 4.032507613988494 0.005382096636701403 -48.2354397836677 0 0 0
150 0 5 0 6.048401853045694 2.0265705703823453 -48.239891231171555 0 0 0
151 0 5 0 6.0510577068026725 0.007834877366507396 -46.23495852985617 0 0 0
152 0 5 0 4.0340247411071495 2.0281003603511785 -46.23586640540114 0 0 0
178 0 5 0 2.0122076594177 6.069432736570593 -48.23783850332798 0 0 0
179 0 5 0 2.015767103156882 4.049004432505099 -46.235964902877726 0 0 0
181 0 5 0 4.030631430043378 4.048238796973269 -48.238915963591936 0 0 0
182 0 5 0 6.046195955745252 6.069794831498015 -48.242356020591025 0 0 0
183 0 5 0 6.05029132312022 4.049881283583261 -46.2402677979563 0 0 0
184 0 5 0 4.031252353321615 6.070475967046567 -46.23776306574687 0 0 0
153 0 5 0 8.066925918239741 0.005616031663377125 -48.23914971349707 0 0 0
188 0 5 0 8.067756240081428 6.070446295829528 -46.24534527526952 0 0 0
185 0 5 0 8.065115263070055 4.047954281190925 -48.245189046110966 0 0 0
156 0 5 0 8.068131517755848 2.028983081198749 -46.24178768402916 0 0 0
129 0 5 0 16.15147720256655 0.003574141045091348 -48.24984875855796 -1 0 0
132 0 5 0 16.15174845442342 2.025083416789746 -46.25278770816318 -1 0 0
161 0 5 0 16.151833742365113 4.044233839398347 -48.25424612014366 -1 0 0
155 0 5 0 10.08834389648421 0.007395749100079369 -46.24167961263581 0 0 0
157 0 5 0 12.10656677346164 0.0049502424484656835 -48.245282814698626 0 0 0
159 0 5 0 14.130642289682878 0.006263421578302219 -46.248902012883256 0 0 0
164 0 5 0 16.15219528996519 6.066997811228376 -46.258184521670636 -1 0 0
154 0 5 0 10.085301819504076 2.025919834758231 -48.24522398434698 0 0 0
158 0 5 0 14.128769586932624 2.024461925233552 -48.251164083510915 0 0 0
160 0 5 0 12.10884625473637 2.027851028554063 -46.249698867000795 0 0 0
186 0 5 0 10.084077874952992 6.068404918319539 -48.25118658889308 0 0 0
187 0 5 0 10.087367304144117 4.05001830909236 -46.2495205158963 0 0 0
189 0 5 0 12.106181618115285 4.046218122672579 -48.251896154708874 0 0 0
190 0 5 0 14.128960918846824 6.065931764164056 -48.25636091532428 0 0 0
191 0 5 0 14.12989589963898 4.047113522304764 -46.25506811615094 0 0 0
192 0 5 0 12.108102817351257 6.0692281427318395 -46.255679753110236 0 0 0
197 0 5 0 -12.121882887043238 8.085926901225278 -48.25624082381754 0 0 0
195 0 5 0 -14.145316460220704 8.086679244808131 -46.2593967224979 0 0 0
199 0 5 0 -10.10319356365239 8.08789642677396 -46.25345754671217 0 0 0
194 0 5 0 -14.143630614066089 10.106915520513436 -48.26018980579212 0 0 0
198 0 5 0 -10.099767112077803 10.1082119367649 -48.25405811143379 0 0 0
200 0 5 0 -12.123269331190707 10.107379226648318 -46.258451787832556 0 0 0
226 0 5 0 -14.143794648259535 14.150816165576444 -48.25933812285741 0 0 0
227 0 5 0 -14.144923484466501 12.127729476158994 -46.26260392660559 0 0 0
229 0 5 0 -12.120855778614201 12.12906928762328 -48.25758368395856 0 0 0
230 0 5 0 -10.099011911785349 14.150799820267762 -48.25181254366191 0 0 0
231 0 5 0 -10.102294221609386 12.128159958993116 -46.25371439861281 0 0 0
232 0 5 0 -12.12331628476163 14.14873744331792 -46.25785215029645 0 0 0
204 0 5 0 -8.083096628780957 10.108997061358005 -46.24864552297164 0 0 0
236 0 5 0 -8.081789912490294 14.149194055180923 -46.24624746936875 0 0 0
201 0 5 0 -8.079830043157537 8.088213621709416 -48.24996437381498 0 0 0
205 0 5 0 -4.041508322103141 8.090046230203193 -48.2415900163143 0 0 0
207 0 5 0 -2.025267900792605 8.09112736216166 -46.237969938134526 0 0 0
233 0 5 0 -8.078890985985742 12.130175207836736 -48.248346698597835 0 0 0
203 0 5 0 -6.06396823265414 8.090553571046113 -46.24522178409158 0 0 0
202 0 5 0 -6.059988721232089 10.110603625670848 -48.244769937704646 0 0 0
206 0 5 0 -2.0242208460251327 10.111629787675954 -48.237525987418984 0 0 0
208 0 5 0 -4.044822591185144 10.110584267317089 -46.238466995729844 0 0 0
234 0 5 0 -6.059536599315616 14.150754154561781 -48.241856666657206 0 0 0
235 0 5 0 -6.063589205466032 12.129489085636699 -46.24113430795736 0 0 0
237 0 5 0 -4.041694827933669 12.131293605860284 -48.23860560120108 0 0 0
238 0 5 0 -2.0239979519606006 14.150896113052381 -48.23480774387908 0 0 0
239 0 5 0 -2.0264246420017575 12.13010724391108 -46.23292090393886 0 0 0
240 0 5 0 -4.044448899188984 14.149762903859832 -46.235316561188434 0 0 0
212 0 5 0 -0.007723889062115058 10.110998070048051 -46.233990095199665 0 0 0
241 0 5 0 -0.007426090639360662 12.131521008304357 -48.23471856160463 0 0 0
244 0 5 0 -0.007767986268606746 14.149586326416792 -46.23125742165245 0 0 0
209 0 5 0 -0.006341520180049202 8.090673737023403 -48.23735121446989 0 0 0
211 0 5 0 2.011609852198115 8.090930648990435 -46.235932620889315 0 0 0
213 0 5 0 4.027533172156817 8.090779303541488 -48.23939056001647 0 0 0
215 0 5 0 6.047444830412522 8.090403931158395 -46.240512143373074 0 0 0
217 0 5 0 8.063537029504452 8.089891359920586 -48.24638416725697 0 0 0
210 0 5 0 2.009500826309444 10.111406009103776 -48.236783435387245 0 0 0
214 0 5 0 6.044168662224355 10.110676460064436 -48.24167526762177 0 0 0
216 0 5 0 4.027991791250413 10.110563188002098 -46.23648684745298 0 0 0
242 0 5 0 2.0098111211059484 14.151379135987803 -48.233963233693736 0 0 0
243 0 5 0 2.0100196846423115 12.130075113678258 -46.23278956562949 0 0 0
245 0 5 0 4.026166279063114 12.131162795486981 -48.237857487284586 0 0 0
246 0 5 0 6.044804107180991 14.151093463439963 -48.240539730967306 0 0 0
247 0 5 0 6.046350199400806 12.130275429429249 -46.24025612147 0 0 0
248 0 5 0 4.028808341387053 14.150179850733895 -46.2352046856245 0 0 0
220 0 5 0 8.066392282682838 10.109367221982602 -46.24548607715221 0 0 0
249 0 5 0 8.063137486027278 12.130212049298692 -48.24518025735876 0 0 0
252 0 5 0 8.066987488791643 14.150444457391536 -46.24458994411094 0 0 0
193 0 5 0 16.152826426725742 8.085657294221692 -48.2598351651514 -1 0 0
219 0 5 0 10.087613778770097 8.08885104866446 -46.251226686496864 0 0 0
221 0 5 0 12.105595593913307 8.087810091691866 -48.256441013715275 0 0 0
223 0 5 0 14.130280814933988 8.088582409191327 -46.260731485835706 0 0 0
228 0 5 0 16.152879951103735 14.148479694864564 -46.262718941400564 -1 0 0
196 0 5 0 16.152582836011675 10.10719145737739 -46.26397370527036 -1 0 0
225 0 5 0 16.152800042898363 12.12884257402287 -48.2619467373292 -1 0 0
218 0 5 0 10.083428375068808 10.109161806397683 -48.25094987757237 0 0 0
222 0 5 0 14.128877640125676 10.107452422579 -48.261429184125255 0 0 0
224 0 5 0 12.10916566479171 10.107981184619662 -46.25773533213639 0 0 0
250 0 5 0 10.08334373298969 14.150435715270394 -48.25048203177579 0 0 0
251 0 5 0 10.087446374328504 12.12916536602592 -46.251096358391806 0 0 0
253 0 5 0 12.105048776060398 12.129015157833695 -48.25665197326214 0 0 0
254 0 5 0 14.128157778832431 14.150374857564117 -48.25829340359096 0 0 0
255 0 5 0 14.130470737137951 12.126921654216495 -46.26310008240509 0 0 0
256 0 5 0 12.107490661687525 14.148634839852477 -46.256819502319644 0 0 0
258 0 5 0 -14.146919467945542 -14.12849361248567 -44.30143135940479 0 0 0
262 0 5 0 -10.106430781890307 -14.129741500137646 -44.29076214550785 0 0 0
264 0 5 0 -12.130104625212956 -14.133398337338688 -42.336930419884794 0 0 0
290 0 5 0 -14.148760975124986 -10.09130959804571 -44.28858950339881 0 0 0
291 0 5 0 -14.151031529976983 -12.116340143705889 -42.333863777840165 0 0 0
293 0 5 0 -12.12792692349444 -12.109667301560766 -44.29088715299054 0 0 0
294 0 5 0 -10.107448091665502 -10.089865377577343 -44.28340295829935 0 0 0
295 0 5 0 -10.11069812158316 -12.112037870235909 -42.32891870927834 0 0 0
296 0 5 0 -12.131402463780379 -10.092425741171102 -42.32675203746636 0 0 0
514 0 5 0 -14.151853577039065 -14.144182840102486 -40.341708827564496 0 0 0
516 0 5 0 -10.112954885475997 -14.136791040383716 -40.337368756637794 0 0 0
530 0 5 0 -14.15764952003681 -10.103573224719701 -40.33767698001418 0 0 0
531 0 5 0 -12.133126745433543 -12.118786346811682 -40.33759273351626 0 0 0
532 0 5 0 -10.118969272626972 -10.09481787570933 -40.32564842029715 0 0 0
268 0 5 0 -8.088682434313553 -14.130289006444675 -42.327946744157515 0 0 0
263 0 5 0 -10.112406832634035 -16.151921806754228 -42.33529933308056 0 0 0
259 0 5 0 -14.145645830391613 -16.149832548129417 -42.353556642652585 0 0 0
261 0 5 0 -12.124994137238371 -16.150755032674912 -44.30104461227804 0 0 0
1286 2 2 0.5564 -11.224855514797037 -15.888176168749851 -37.80549994954652 0 0 0
1309 10 2 0.5564 -11.497317482735328 -13.641237705837005 -38.62947449581901 0 0 0
1311 11 1 -1.1128 -8.138323903579858 -10.073602597020281 -37.96826303809054 0 0 0
517 0 5 0 -8.097478490770131 -16.14682621937589 -40.33551717199666 0 0 0
515 0 5 0 -12.13808307688319 -16.155590111392982 -40.33975602488794 0 0 0
1308 10 1 -1.1128 -11.916650985139896 -14.084164771265277 -37.891770713748215 0 0 0
300 0 5 0 -8.090720468075938 -10.093218284561045 -42.31951744033026 0 0 0
533 0 5 0 -8.09628391845323 -12.115883063772994 -40.32561525910002 0 0 0
1306 9 2 0.5564 -13.438657155904984 -13.040273511204926 -37.92330368052655 0 0 0
1305 9 1 -1.1128 -14.093408720853374 -12.342240991547879 -37.90648546371832 0 0 0
1307 9 2 0.5564 -13.581825295687677 -11.534289183292124 -37.86491447606346 0 0 0
265 0 5 0 -8.085648042316052 -16.150917367998126 -44.28542737895353 0 0 0
1312 11 2 0.5564 -8.346712046508637 -10.022428589955835 -38.90110141541719 0 0 0
297 0 5 0 -8.085518781941584 -12.10980781668863 -44.28267853847653 0 0 0
1330 17 2 0.5564 -14.790310444130421 -8.393897672692633 -38.69853811169686 0 0 0
1332 18 1 -1.1128 -12.338667855679791 -10.166882206267868 -37.87803739274275 0 0 0
1334 18 2 0.5564 -12.921789700626329 -9.408328617068163 -37.84980207994065 0 0 0
1329 17 1 -1.1128 -14.316900057655051 -8.226517180423462 -37.883615897876716 0 0 0
266 0 5 0 -6.064077159419612 -14.130363517650416 -44.2792830298396 0 0 0
270 0 5 0 -2.0274955420584515 -14.131145690683912 -44.27220591902505 0 0 0
271 0 5 0 -2.028392444558869 -16.14993063698969 -42.30715761722977 0 0 0
272 0 5 0 -4.046512613422721 -14.130061910999517 -42.31003562998708 0 0 0
298 0 5 0 -6.065557868368592 -10.092882317407952 -44.27653593671617 0 0 0
299 0 5 0 -6.066869395474522 -12.113207499843334 -42.31666163031927 0 0 0
301 0 5 0 -4.045077712439633 -12.113084916349099 -44.27583203781203 0 0 0
302 0 5 0 -2.0228216498930243 -10.092652996669411 -44.27190346468751 0 0 0
303 0 5 0 -2.0284288031044424 -12.11160164923342 -42.3105176647021 0 0 0
304 0 5 0 -4.04460126170136 -10.099075394493111 -42.3164042261425 0 0 0
518 0 5 0 -6.072609127612572 -14.131297710623292 -40.31654778227987 0 0 0
520 0 5 0 -2.026061073250364 -14.128242376112166 -40.302689868061286 0 0 0
534 0 5 0 -6.071442217893932 -10.096134845323284 -40.32114190741118 0 0 0
535 0 5 0 -4.046401412200866 -12.11059588152867 -40.30418687175753 0 0 0
536 0 5 0 -2.022840896815333 -10.091900292419984 -40.305725474091965 0 0 0
269 0 5 0 -4.045552260174401 -16.150189308920073 -44.27371862316371 0 0 0
1294 5 2 0.5564 -0.7705934327705963 -13.878824181603637 -37.656404677547805 0 0 0
267 0 5 0 -6.068113351910609 -16.14951128544548 -42.31986992652595 0 0 0
276 0 5 0 -0.010401051201458874 -14.132483231589573 -42.313689695256606 0 0 0
273 0 5 0 -0.008172337542236539 -16.15100867082857 -44.271020736831275 0 0 0
519 0 5 0 -4.0513891609961075 -16.151122671186204 -40.31026869118011 0 0 0
308 0 5 0 -0.0024861883485678836 -10.090411229486913 -42.31000969586086 0 0 0
305 0 5 0 -0.005700940508213376 -12.110591530608746 -44.26967620836 0 0 0
521 0 5 0 -0.004939165717617503 -16.14633403016559 -40.30453394269167 0 0 0
1313 11 2 0.5564 -7.403074459620621 -9.4715993078712 -37.85323196000854 0 0 0
1318 13 2 0.5564 -0.8639729167546109 -9.95964549439336 -37.753226200214556 0 0 0
537 0 5 0 -0.004694570145646712 -12.10975423915265 -40.328369277160576 0 0 0
551 0 5 0 -4.046960148297391 -8.089590383401172 -40.3345809414258 0 0 0
1335 19 1 -1.1128 -6.122522036330225 -8.133337268611006 -37.83456691958054 0 0 0
274 0 5 0 2.014532822416651 -14.130549885672757 -44.26904610009007 0 0 0
275 0 5 0 2.0131941030281184 -16.152632217308316 -42.31193829436069 0 0 0
278 0 5 0 6.056020951026627 -14.130639104305125 -44.27501605955062 0 0 0
280 0 5 0 4.040764962092495 -14.131827587786832 -42.31479347431706 0 0 0
306 0 5 0 2.017498605493876 -10.089772134695787 -44.27095912283193 0 0 0
307 0 5 0 2.0181805213627486 -12.105809558074077 -42.31601445583537 0 0 0
309 0 5 0 4.038119910330198 -12.109829033991312 -44.270632312207844 0 0 0
310 0 5 0 6.056311650785727 -10.090132455772588 -44.26900285282387 0 0 0
311 0 5 0 6.060546989821542 -12.111952287018301 -42.31006938874546 0 0 0
312 0 5 0 4.037800755531743 -10.091036635803789 -42.307198687648196 0 0 0
522 0 5 0 2.015837393959985 -14.121958757365915 -40.33773794311184 0 0 0
524 0 5 0 6.059862826710311 -14.133121797767002 -40.30742553867451 0 0 0
538 0 5 0 2.017233912198051 -10.098368246277168 -40.29589366451151 0 0 0
539 0 5 0 4.041434772029011 -12.113090131097405 -40.31862116512156 0 0 0
540 0 5 0 6.060710175753844 -10.090145958077208 -40.30782288174504 0 0 0
277 0 5 0 4.033491122979921 -16.150743925298034 -44.27313653994414 0 0 0
279 0 5 0 6.055872374237739 -16.150984227877178 -42.31312823643312 0 0 0
1324 15 2 0.5564 6.215848203412824 -12.327650810375985 -38.754832544844504 0 0 0
313 0 5 0 8.074007058618891 -12.110805116627835 -44.275732403437374 0 0 0
1298 6 2 0.5564 1.8447255327200476 -14.653362782956476 -37.704770053913975 0 0 0
1293 5 1 -1.1128 0.15780031717911389 -13.902186773584877 -37.88829059482972 0 0 0
1296 6 1 -1.1128 2.7727969473548693 -14.82513574634461 -37.54536691478662 0 0 0
1323 15 1 -1.1128 6.158194571872467 -11.957604361776522 -37.87393894928377 0 0 0
284 0 5 0 8.077626256241219 -14.134163196809645 -42.314914936733516 0 0 0
523 0 5 0 4.032731939483933 -16.147479562752178 -40.3091198613048 0 0 0
281 0 5 0 8.070628853359116 -16.15018890007477 -44.28297847766153 0 0 0
1322 14 2 0.5564 3.2904278907076554 -13.066934292278036 -37.588723865976846 0 0 0
1295 5 2 0.5564 0.38274309402584805 -12.989762222945775 -38.07026320102378 0 0 0
1325 15 2 0.5564 5.235650966195265 -12.048402804113822 -37.63540003830244 0 0 0
513 0 5 0 16.156173145208506 -16.15477500529416 -40.37208623041584 -1 0 0
541 0 5 0 8.08534917034577 -12.116026066412205 -40.31468961052862 0 0 0
316 0 5 0 8.078503163769879 -10.091592394995956 -42.31022040974499 0 0 0
260 0 5 0 16.152503599552023 -14.130465889467413 -42.34488589792007 -1 0 0
289 0 5 0 16.150947580594668 -12.109490204459476 -44.29589742599982 -1 0 0
292 0 5 0 16.149989602644908 -10.096153041130304 -42.32920019746007 -1 0 0
257 0 5 0 16.151903289310887 -16.15127011818653 -44.30407927654838 -1 0 0
529 0 5 0 16.150526416750743 -12.125444302856259 -40.327796353339124 -1 0 0
282 0 5 0 10.090673115492542 -14.130102438656143 -44.28728408454071 0 0 0
286 0 5 0 14.13055160537705 -14.13028398105502 -44.29757958180512 0 0 0
288 0 5 0 12.113701234374467 -14.135731814731836 -42.334167022050934 0 0 0
314 0 5 0 10.092994245889363 -10.09073787050795 -44.276563570199514 0 0 0
315 0 5 0 10.095680696947795 -12.115905748017758 -42.31983549815499 0 0 0
317 0 5 0 12.111217941245528 -12.110445533193126 -44.2864756556243 0 0 0
318 0 5 0 14.130519595188753 -10.090829580400117 -44.2865745178489 0 0 0
319 0 5 0 14.134023478582664 -12.115213007085995 -42.331075758421576 0 0 0
320 0 5 0 12.115425236561686 -10.09381548882337 -42.319870661465515 0 0 0
526 0 5 0 10.105696021543396 -14.143212629564587 -40.31453490816304 0 0 0
528 0 5 0 14.137404972864244 -14.145763193891488 -40.344785420515926 0 0 0
542 0 5 0 10.102279623785273 -10.097004601774298 -40.313850443470855 0 0 0
543 0 5 0 12.117534450225408 -12.12548503050349 -40.33391563007791 0 0 0
544 0 5 0 14.139520209448499 -10.101188751603638 -40.32563266385229 0 0 0
285 0 5 0 12.110500675916851 -16.15155573086946 -44.2977548478405 0 0 0
287 0 5 0 14.132972872542938 -16.15596333410364 -42.34778379140305 0 0 0
1352 24 2 0.5564 11.488467746230786 -9.908037556887164 -38.50143897232125 0 0 0
283 0 5 0 10.094858340980101 -16.149970222042274 -42.33264866257806 0 0 0
525 0 5 0 8.084304572421818 -16.157526808264667 -40.31641019087996 0 0 0
1281 1 1 -1.1128 15.452661457094406 -15.145271897425218 -37.63944329785175 -1 0 0
1350 24 1 -1.1128 12.18610987232272 -10.194036001982374 -37.91175075422523 0 0 0
1326 16 1 -1.1128 13.976491066213487 -12.296309373902554 -37.910275477719566 0 0 0
1327 16 2 0.5564 13.371856584421629 -13.038322467884953 -37.90217779489196 0 0 0
1328 16 2 0.5564 13.409908357242264 -11.525359702279388 -37.93947326519438 0 0 0
4929 0 3 1 16.089873769027747 -12.99619677255109 -37.693875534786606 0 0 0
1282 1 2 0.5564 14.503022895578821 -15.255973455839946 -37.6859580901256 -1 0 0
1304 8 2 0.5564 12.00555707319444 -15.425252184840549 -37.92277778766994 0 0 0
1283 1 2 0.5564 15.8011133782262 -16.034896402135637 -37.69759282084531 -1 0 0
1302 8 1 -1.1128 12.6622674065375 -14.807812066538505 -37.60070466625025 0 0 0
323 0 5 0 -14.148882117744126 -8.074079163386614 -42.3256451821372 0 0 0
547 0 5 0 -12.135665545423159 -8.076821143997664 -40.3176638631895 0 0 0
322 0 5 0 -14.147494683704688 -6.051203891591097 -44.2825394164649 0 0 0
325 0 5 0 -12.12744429463096 -8.071411554013164 -44.284295951620464 0 0 0
326 0 5 0 -10.105055651738306 -6.052003294347676 -44.27967397388648 0 0 0
327 0 5 0 -10.111151620997864 -8.07160677459427 -42.31899997132158 0 0 0
328 0 5 0 -12.126104070870507 -6.053759893247067 -42.322760615401876 0 0 0
354 0 5 0 -14.147567378660701 -2.011900439768175 -44.28525359287087 0 0 0
355 0 5 0 -14.149265739194039 -4.029088540816268 -42.32385327053685 0 0 0
357 0 5 0 -12.125915592885098 -4.031996968410778 -44.28071271225822 0 0 0
358 0 5 0 -10.104680777581478 -2.01416767359014 -44.2807772872555 0 0 0
359 0 5 0 -10.10445669923961 -4.032883673536228 -42.318432956190726 0 0 0