ITEM: TIMESTEP
0
ITEM: NUMBER OF ATOMS
1350
ITEM: BOX BOUNDS pp pp pp
-2.2344655863263910e+01 2.2344655863263910e+01
-8.7776352824922288e+00 8.7776352824922288e+00
-8.7776352824922288e+00 8.7776352824922288e+00
ITEM: ATOMS id type xs ys zs
363 2 0.154638 0.397317 0.250699
173 2 0.193982 0.0162133 0.259709
362 2 0.165078 0.467896 0.292522
361 1 0.163214 0.41384 0.297852
1802 2 0.128952 0.434387 0.449753
1801 1 0.134199 0.382169 0.441512
979 1 0.214946 0.386576 0.399291
1803 2 0.140303 0.380112 0.389289
493 1 0.0775407 0.368405 0.228985
494 2 0.0664501 0.408065 0.204431
981 2 0.209546 0.438509 0.389966
1727 2 0.117878 0.365335 0.195939
1728 2 0.133475 0.397618 0.126528
1726 1 0.136553 0.364652 0.169246
482 2 0.249753 0.272804 0.246312
483 2 0.226184 0.214441 0.267069
495 2 0.0725019 0.373156 0.281766
980 2 0.210062 0.360617 0.352982
1957 1 0.133901 0.218668 0.358743
1959 2 0.116907 0.185672 0.355161
423 2 0.161379 0.307969 0.115446
436 1 0.0437483 0.350998 0.373321
464 2 0.137357 0.198925 0.248079
421 1 0.170506 0.263641 0.0938089
463 1 0.134643 0.171475 0.201477
523 1 0.113965 0.0489074 0.135794
525 2 0.121996 0.0911236 0.163593
524 2 0.131006 0.0181087 0.12385
220 1 0.191237 0.184449 0.315635
422 2 0.164065 0.263614 0.0418079
1958 2 0.127175 0.260376 0.389408
221 2 0.197 0.133547 0.328545
222 2 0.170086 0.185733 0.32415
481 1 0.243167 0.222221 0.234768
384 2 0.0953556 0.196111 0.206146
318 2 0.106147 0.330996 0.0192402
465 2 0.150081 0.190183 0.168636
120 2 0.109604 0.113623 0.0569165
2087 2 0.039476 0.492082 0.457504
1107 2 0.224711 0.181587 0.14426
383 2 0.0762434 0.265823 0.220632
382 1 0.0752131 0.214354 0.202827
438 2 0.0562426 0.350636 0.417606
316 1 0.119737 0.369125 0.00128809
1105 1 0.216873 0.152898 0.102405
611 2 0.216118 0.429444 0.04866
305 2 0.0312634 0.0703384 0.261885
437 2 0.0363552 0.299961 0.369589
455 2 0.0198669 0.376145 0.1247
308 2 0.102485 0.0704374 0.38742
307 1 0.0864201 0.105827 0.380479
309 2 0.0714258 0.0897353 0.415935
147 2 0.214241 0.0549204 0.131885
306 2 0.0610946 0.0601026 0.301447
519 2 0.0792723 0.00881144 0.115003
146 2 0.233059 6.4427e-05 0.178066
145 1 0.212797 0.0113398 0.164446
1760 2 0.0234906 0.417852 0.0187553
531 2 0.0877757 0.210083 0.017513
530 2 0.073663 0.241933 0.0891482
529 1 0.0763339 0.252286 0.0360486
454 1 0.0290212 0.424798 0.116778
610 1 0.233962 0.399784 0.0431963
2070 2 0.0268976 0.184221 0.22407
1106 2 0.200852 0.183488 0.08307
172 1 0.187833 0.00205784 0.309984
174 2 0.166524 0.00754074 0.309464
105 2 0.14345 0.00985667 0.409193
887 2 0.0090505 0.158338 0.407328
304 1 0.0482191 0.03712 0.264427
118 1 0.108036 0.129986 0.00505824
157 1 0.00257181 0.0624328 0.449441
417 2 0.186341 0.298615 0.496391
1048 1 0.161757 0.0666558 0.481921
2068 1 0.00726367 0.167901 0.238511
765 2 0.246241 0.369895 0.459211
87 2 0.0135999 0.421365 0.359487
886 1 0.0105742 0.206423 0.381916
2069 2 0.0041254 0.190167 0.287637
456 2 0.0184711 0.458432 0.150251
1077 2 0.247888 0.425011 0.266587
561 2 0.00363572 0.263607 0.173645
1096 1 0.163754 0.967681 0.102195
1098 2 0.180807 0.99031 0.126203
170 2 0.0381952 0.529808 0.0494015
1767 2 0.01994 0.910442 0.0155859
960 2 0.231184 0.61292 0.400691
104 2 0.132558 0.935604 0.375215
2088 2 0.0689081 0.522397 0.487574
618 2 0.0214674 0.579455 0.170058
103 1 0.132518 0.989499 0.366954
617 2 0.0108262 0.565159 0.250672
2086 1 0.0511819 0.537608 0.461015
477 2 0.0133856 0.847051 0.320707
236 2 0.0839941 0.544939 0.0195377
452 2 0.239599 0.724336 0.460154
237 2 0.117158 0.552842 0.00382046
413 2 0.167421 0.595918 0.273189
412 1 0.155091 0.578743 0.314333
414 2 0.161015 0.609467 0.356778
476 2 0.0315242 0.915151 0.294881
803 2 0.0191053 0.74852 0.111114
492 2 0.0215593 0.609744 0.489186
350 2 0.0267529 0.816451 0.439952
694 1 0.220158 0.74365 0.127326
904 1 0.0952712 0.851369 0.47846
521 2 0.0444296 0.595559 0.366879
520 1 0.0397579 0.621557 0.32045
1952 2 0.0944327 0.682169 0.169652
522 2 0.057356 0.650503 0.309129
1097 2 0.16833 0.914451 0.100257
558 2 0.106478 0.712276 0.283437
1953 2 0.0724041 0.723588 0.118892
1951 1 0.0931021 0.710172 0.122991
340 1 0.126227 0.827191 0.228816
342 2 0.137445 0.815967 0.183744
341 2 0.116225 0.874071 0.217547
905 2 0.110474 0.837441 0.442666
310 1 0.140287 0.821961 0.37594
312 2 0.157707 0.845404 0.397316
475 1 0.0214169 0.894449 0.338267
349 1 0.0322143 0.796974 0.488945
556 1 0.0980513 0.662149 0.283747
781 1 0.174857 0.696894 0.418211
695 2 0.229427 0.715315 0.0871592
783 2 0.167085 0.736042 0.385822
311 2 0.140509 0.836908 0.323507
351 2 0.0522826 0.814425 0.4966
557 2 0.112128 0.632118 0.3118
314 2 0.0077762 0.689998 0.326681
518 2 0.0568842 0.998275 0.178859
983 2 0.124504 0.656266 0.0784667
517 1 0.0627727 0.977749 0.130621
79 1 0.186064 0.62037 0.192263
80 2 0.20044 0.581013 0.183061
982 1 0.139347 0.616969 0.0773617
81 2 0.195652 0.666013 0.17512
984 2 0.154515 0.634159 0.111808
491 2 0.0171008 0.694717 0.498545
704 2 0.187011 0.936383 0.378327
703 1 0.188907 0.897251 0.415988
802 1 0.0375018 0.755279 0.0840185
840 2 0.178358 0.570041 0.0476915
705 2 0.204999 0.866032 0.39809
782 2 0.192037 0.719415 0.441731
838 1 0.196543 0.547782 0.0293979
804 2 0.03192 0.753152 0.0314205
431 2 0.15676 0.785926 0.062527
432 2 0.184722 0.777455 0.110464
430 1 0.164442 0.794861 0.112634
332 2 0.107168 0.796567 0.0401521
169 1 0.0496518 0.575647 0.0540091
171 2 0.0373034 0.614159 0.0316117
696 2 0.236476 0.76709 0.153747
1766 2 0.0329837 0.955748 0.0810199
958 1 0.235178 0.561958 0.384185
249 2 0.148855 0.979005 0.00935139
451 1 0.229782 0.69202 0.496266
331 1 0.108586 0.837293 0.00407792
616 1 0.00559233 0.556442 0.198523
354 2 0.240289 0.548164 0.293711
206 2 0.0499059 0.993869 0.464461
205 1 0.0670792 0.992253 0.497006
207 2 0.0789205 0.951274 0.477383
352 1 0.242928 0.533027 0.241762
1765 1 0.0143911 0.942277 0.0575384
269 2 0.0939919 0.147257 0.526006
190 1 0.0752905 0.332094 0.502138
317 2 0.10714 0.40775 0.980009
192 2 0.0866992 0.359447 0.539304
268 1 0.105445 0.13065 0.568984
130 1 0.0674067 0.209855 0.691867
132 2 0.0526266 0.17218 0.680122
270 2 0.0968841 0.15716 0.611355
896 2 0.189335 0.323012 0.872993
131 2 0.0561659 0.255344 0.701081
119 2 0.097163 0.0901054 0.980231
550 1 0.201734 0.145764 0.790793
895 1 0.202631 0.357127 0.898751
406 1 0.0564796 0.318885 0.913547
416 2 0.155864 0.305321 0.533439
415 1 0.175394 0.284247 0.541
1049 2 0.14914 0.0987228 0.512139
513 2 0.0127275 0.0874005 0.644493
408 2 0.0647855 0.29159 0.955748
407 2 0.0417161 0.351512 0.935819
511 1 0.0202934 0.123794 0.680235
2014 1 0.0958992 0.431471 0.65392
933 2 0.102033 0.482095 0.568402
2016 2 0.111952 0.440175 0.688951
1050 2 0.176562 0.0483023 0.51679
2015 2 0.0813327 0.403804 0.682773
779 2 0.202301 0.33075 0.610544
780 2 0.233103 0.364631 0.598688
71 2 0.131336 0.445512 0.796289
1759 1 0.0176382 0.417795 0.966305
70 1 0.141452 0.487278 0.77251
272 2 0.223198 0.200764 0.632955
273 2 0.192308 0.195271 0.597985
101 2 0.14188 0.157237 0.964114
100 1 0.159885 0.185341 0.955042
600 2 0.1422 0.241411 0.805775
598 1 0.161307 0.254396 0.826716
512 2 0.0157069 0.102507 0.729056
599 2 0.162401 0.226218 0.873313
102 2 0.175604 0.149165 0.96298
200 2 0.0318067 0.379726 0.716907
199 1 0.0489289 0.354499 0.737805
201 2 0.0480962 0.365497 0.791168
552 2 0.18802 0.187622 0.792226
2002 1 0.15371 0.0678945 0.703058
2004 2 0.169577 0.104363 0.706478
778 1 0.218034 0.35695 0.636668
299 2 0.124384 0.346599 0.87048
298 1 0.109788 0.370457 0.838494
300 2 0.0909533 0.355074 0.859412
271 1 0.204355 0.175434 0.638469
2020 1 0.104338 0.130316 0.794199
2021 2 0.0909058 0.158037 0.762021
2022 2 0.118217 0.107067 0.759788
2003 2 0.160934 0.0303724 0.668032
2132 2 0.235486 0.347621 0.751256
628 1 0.0170905 0.0871249 0.844033
630 2 0.0354532 0.080026 0.87119
1091 2 0.191065 0.453274 0.887652
425 2 0.199444 0.0935412 0.891531
426 2 0.219671 0.0495503 0.944919
424 1 0.200021 0.0709138 0.941117
927 2 0.19601 0.453381 0.633278
510 2 0.0887628 0.0520329 0.858336
897 2 0.218291 0.366587 0.862776
474 2 0.0216074 0.234717 0.906342
612 2 0.230889 0.37109 0.997497
2131 1 0.242227 0.376171 0.794422
344 2 0.0147858 0.326087 0.598338
925 1 0.185159 0.499756 0.640982
508 1 0.0839951 0.00938179 0.890062
509 2 0.101738 0.000875076 0.919398
926 2 0.170523 0.487351 0.678809
155 2 0.107188 0.00921899 0.63682
345 2 0.0068889 0.245447 0.575324
191 2 0.0581043 0.314287 0.529374
551 2 0.212084 0.151555 0.743408
343 1 0.0158148 0.291278 0.556452
629 2 0.01107 0.138002 0.856265
472 1 0.00344755 0.226584 0.878598
2133 2 0.24719 0.425217 0.774228
457 1 0.243648 0.531008 0.698052
2065 1 0.015368 0.6614 0.963188
514 1 0.0367212 0.626654 0.662057
319 1 0.177617 0.743876 0.946089
235 1 0.0994753 0.527756 0.986002
535 1 0.149734 0.600218 0.556395
536 2 0.16181 0.627056 0.520233
906 2 0.103054 0.835732 0.526791
490 1 0.00814217 0.646613 0.510331
333 2 0.0883969 0.85423 0.997392
992 2 0.184543 0.927502 0.594684
321 2 0.186902 0.698433 0.9274
480 2 0.234376 0.886727 0.704815
537 2 0.163805 0.573443 0.587587
478 1 0.240388 0.851819 0.665826
515 2 0.0222616 0.632043 0.622194
545 2 0.0420193 0.802657 0.781716
239 2 0.206469 0.94672 0.795469
1854 2 0.00400323 0.553787 0.801614
72 2 0.128542 0.530019 0.780645
991 1 0.184038 0.979591 0.610748
993 2 0.20464 0.993999 0.614624
238 1 0.226835 0.930733 0.790016
516 2 0.0554999 0.637182 0.638037
555 2 0.0432304 0.838804 0.888388
544 1 0.0273989 0.771278 0.806275
156 2 0.0825279 0.965487 0.597027
546 2 0.0345926 0.720388 0.799355
88 1 0.220758 0.715134 0.751352
1090 1 0.184244 0.504779 0.883321
839 2 0.192434 0.535315 0.977358
985 1 0.0435425 0.619118 0.821013
532 1 0.105586 0.778385 0.84349
154 1 0.096698 0.961689 0.637738
548 2 0.0783409 0.895426 0.704916
500 2 0.169044 0.855022 0.793118
932 2 0.124739 0.532878 0.529459
240 2 0.236928 0.952869 0.83271
553 1 0.0492956 0.86245 0.935029
931 1 0.106845 0.504389 0.520174
554 2 0.0505722 0.915537 0.923021
267 2 0.236798 0.643778 0.97682
501 2 0.147753 0.788231 0.786937
549 2 0.0747225 0.925959 0.785039
193 1 0.166911 0.958872 0.81402
2120 2 0.105277 0.672864 0.837728
209 2 0.201417 0.589592 0.877304
210 2 0.21475 0.658956 0.83892
1092 2 0.171038 0.504308 0.840395
1995 2 0.00823536 0.843353 0.545161
168 2 0.195669 0.774728 0.565375
534 2 0.102964 0.792185 0.895816
567 2 0.123029 0.878369 0.634936
565 1 0.124383 0.823961 0.635887
566 2 0.145029 0.813416 0.625917
986 2 0.0416465 0.607471 0.767966
533 2 0.0988337 0.821947 0.815564
166 1 0.185652 0.803178 0.604277
167 2 0.200742 0.812423 0.641853
208 1 0.214638 0.631585 0.886076
225 2 0.103715 0.744686 0.634654
224 2 0.109685 0.663826 0.608818
223 1 0.0938725 0.699798 0.616478
320 2 0.174964 0.774974 0.901815
547 1 0.0699425 0.883143 0.753547
195 2 0.161913 0.999561 0.780027
2119 1 0.106271 0.618427 0.835939
2121 2 0.107121 0.603117 0.888226
248 2 0.130353 0.914155 0.977527
194 2 0.160862 0.976793 0.86316
987 2 0.0646247 0.617573 0.83052
459 2 0.222832 0.522299 0.688604
90 2 0.230778 0.761181 0.765561
499 1 0.168442 0.800524 0.793867
89 2 0.19998 0.725845 0.759135
247 1 0.136628 0.965167 0.966776
2067 2 0.0266684 0.630426 0.928749
453 2 0.245316 0.676642 0.530511
29 5 0.460195 0.316964 0.243995
26 5 0.407566 0.359611 0.216174
24 3 0.419061 0.395001 0.262166
25 5 0.422205 0.452836 0.234477
30 4 0.469037 0.400996 0.284977
27 3 0.449097 0.357626 0.282007
589 1 0.276244 0.136151 0.0421761
22 5 0.373311 0.434801 0.341617
20 3 0.399441 0.430709 0.350136
23 4 0.40264 0.381874 0.307945
28 5 0.445521 0.319908 0.334045
731 2 0.329588 0.142007 0.00855685
732 2 0.363257 0.151461 0.00976855
392 2 0.305147 0.125807 0.185083
1099 1 0.383374 0.201956 0.104512
1013 2 0.385135 0.281285 0.342253
338 2 0.339642 0.268785 0.326885
1014 2 0.375442 0.20585 0.375978
1101 2 0.389869 0.189202 0.154879
1012 1 0.375298 0.234529 0.329607
1079 2 0.342444 0.396481 0.456334
1100 2 0.37792 0.254593 0.1076
1495 1 0.453421 0.225729 0.115604
1078 1 0.322151 0.408863 0.44404
1496 2 0.468124 0.243746 0.0802844
787 1 0.438093 0.126331 0.391077
1497 2 0.435045 0.226655 0.0876068
1058 2 0.426395 0.139901 0.230895
1057 1 0.405153 0.13299 0.231912
789 2 0.443471 0.117049 0.339121
339 2 0.315053 0.27709 0.268153
337 1 0.320356 0.291177 0.319067
255 2 0.463818 0.177054 0.196088
278 2 0.268476 0.353212 0.181396
441 2 0.397201 0.117801 0.426198
253 1 0.465429 0.144739 0.239813
254 2 0.46785 0.0946207 0.219242
677 2 0.486033 0.0301108 0.131445
788 2 0.455601 0.148647 0.41318
1608 2 0.362322 0.0373417 0.290004
542 2 0.282471 0.0663361 0.35317
1080 2 0.315884 0.369063 0.41036
541 1 0.28111 0.116888 0.373307
1059 2 0.398815 0.158076 0.277556
924 2 0.312606 0.269219 0.123925
922 1 0.322487 0.223155 0.138705
440 2 0.36837 0.0806864 0.400262
855 2 0.406875 0.068022 0.142565
1052 2 0.443272 0.473999 0.050412
1051 1 0.441575 0.431987 0.0159247
923 2 0.343041 0.237382 0.144429
391 1 0.290781 0.105627 0.220131
439 1 0.375955 0.119962 0.432782
15 5 0.404079 0.261647 0.454731
853 1 0.414687 0.0360972 0.10309
461 2 0.304433 0.401313 0.195236
462 2 0.32353 0.401211 0.266464
1023 2 0.368232 0.395711 0.0537823
1022 2 0.344176 0.389983 0.114228
1021 1 0.361519 0.364396 0.0950173
1745 2 0.281694 0.000174335 0.194022
32 5 0.478784 0.394408 0.384342
590 2 0.255707 0.137717 0.0575865
543 2 0.28563 0.149281 0.330984
460 1 0.321656 0.424825 0.21755
277 1 0.278043 0.346926 0.133018
1031 2 0.289152 0.0357925 0.0468493
393 2 0.27433 0.140464 0.21776
16 4 0.3859 0.358321 0.446667
21 5 0.405101 0.494412 0.343904
17 3 0.40298 0.405183 0.432148
19 5 0.428674 0.392215 0.442502
11 5 0.348218 0.254588 0.491113
1008 2 0.283102 0.119972 0.473998
676 1 0.471106 0.0104838 0.165265
854 2 0.434156 0.0217876 0.120748
506 2 0.297474 0.476472 0.468433
279 2 0.262552 0.356279 0.0965439
764 2 0.270429 0.415916 0.498293
963 2 0.422087 0.102331 0.00833494
18 5 0.39497 0.457073 0.470228
13 3 0.393874 0.314443 0.485515
31 3 0.488958 0.386455 0.326685
968 2 0.259967 0.470434 0.0499418
969 2 0.292458 0.470123 0.0255315
1376 2 0.487437 0.197983 0.484738
1375 1 0.494635 0.199101 0.433397
1075 1 0.25669 0.377945 0.282574
1076 2 0.255562 0.379231 0.337008
1606 1 0.352109 0.994933 0.312334
833 2 0.309094 0.978263 0.324954
832 1 0.288153 0.970381 0.333255
1746 2 0.276404 0.956172 0.12109
834 2 0.280973 0.949838 0.286171
1744 1 0.273165 0.953941 0.174942
847 1 0.488999 0.60753 0.422657
678 2 0.480918 0.969956 0.191848
1095 2 0.375793 0.992092 0.0793631
1093 1 0.356667 0.968963 0.0711424
668 2 0.385751 0.926738 0.350441
693 2 0.285273 0.781342 0.211142
1612 1 0.451955 0.83494 0.306279
1613 2 0.457769 0.80194 0.347082
1029 2 0.466817 0.654745 0.265701
1028 2 0.460558 0.622422 0.344047
1065 2 0.341648 0.711107 0.252267
1607 2 0.34893 0.960479 0.270856
665 2 0.461629 0.621745 0.0773927
664 1 0.467898 0.662298 0.0446257
940 1 0.350654 0.876058 0.194027
1283 2 0.487663 0.851098 0.250473
1063 1 0.323459 0.722285 0.225729
1064 2 0.313979 0.673813 0.219331
622 1 0.436831 0.552793 0.126829
891 2 0.403619 0.755383 0.261629
889 1 0.396671 0.705005 0.272684
1030 1 0.295272 0.983669 0.0431816
836 2 0.396164 0.677359 0.0908587
217 1 0.419219 0.773963 0.0289719
219 2 0.428006 0.822818 0.0197062
835 1 0.384456 0.647808 0.125662
837 2 0.38395 0.677624 0.171294
941 2 0.339833 0.829752 0.185657
122 2 0.291444 0.550248 0.148352
623 2 0.416737 0.571057 0.131594
121 1 0.300962 0.567355 0.194105
624 2 0.442479 0.539004 0.177585
1094 2 0.352973 0.940371 0.116607
632 2 0.268586 0.813448 0.40872
1360 1 0.438362 0.868973 0.498936
942 2 0.371174 0.860632 0.196504
1032 2 0.316295 0.984632 0.0535781
876 2 0.401401 0.652371 0.403576
890 2 0.414424 0.676992 0.284759
666 2 0.452306 0.699473 0.0485523
874 1 0.398833 0.630039 0.452886
1038 2 0.4302 0.847685 0.183429
1037 2 0.412072 0.812282 0.11976
1036 1 0.410627 0.829011 0.171525
353 2 0.262864 0.548679 0.229416
123 2 0.309405 0.522228 0.215888
1027 1 0.450832 0.642992 0.300038
875 2 0.415799 0.597305 0.458904
1614 2 0.43409 0.859169 0.3241
681 2 0.316523 0.854796 0.453544
669 2 0.384456 0.872771 0.417623
667 1 0.397362 0.88983 0.377591
692 2 0.26311 0.845364 0.198706
691 1 0.265075 0.796145 0.221628
679 1 0.295289 0.861812 0.452184
1545 2 0.44912 0.941819 0.0539511
680 2 0.292465 0.906874 0.42234
967 1 0.277743 0.500847 0.050551
1384 1 0.499224 0.679078 0.226882
1362 2 0.457842 0.852095 0.483807
1361 2 0.427842 0.876492 0.45204
1543 1 0.444328 0.908993 0.0121582
1102 1 0.357988 0.844817 0.485347
1328 2 0.480822 0.714652 0.428309
1327 1 0.479616 0.76827 0.437725
505 1 0.281671 0.511562 0.479537
633 2 0.257241 0.797563 0.329032
849 2 0.479319 0.581907 0.464
946 1 0.358592 0.585885 0.00581948
947 2 0.358714 0.608363 0.0554946
266 2 0.259666 0.60204 0.0248394
1282 1 0.498344 0.883283 0.215862
265 1 0.251342 0.651512 0.0160919
631 1 0.25242 0.790093 0.38163
36 5 0.4999 0.509476 0.313212
959 2 0.254003 0.549497 0.407015
962 2 0.425374 0.180013 0.971838
730 1 0.347331 0.129414 0.980729
1053 2 0.436323 0.454774 0.968228
2042 2 0.48656 0.406272 0.964898
1507 1 0.488907 0.0764087 0.605494
1202 2 0.451253 0.176314 0.584362
1201 1 0.458752 0.227182 0.58894
322 1 0.26586 0.246285 0.600959
323 2 0.263513 0.288377 0.566818
1042 1 0.254425 0.0286302 0.635037
1301 2 0.494453 0.277961 0.634835
395 2 0.488741 0.107339 0.88658
538 1 0.479011 0.103146 0.776069
976 1 0.275974 0.159263 0.884037
573 2 0.329024 0.0593858 0.886147
591 2 0.275692 0.144018 0.98824
1133 2 0.441003 0.0576631 0.792925
978 2 0.27229 0.147414 0.831648
1066 1 0.376347 0.444026 0.971651
540 2 0.483452 0.156412 0.778871
1007 2 0.266789 0.0777841 0.536706
571 1 0.329349 0.0247927 0.844009
572 2 0.332083 0.056646 0.800307
181 1 0.280625 0.151998 0.716831
587 2 0.466736 0.449497 0.650048
894 2 0.265139 0.049812 0.907659
977 2 0.284978 0.208725 0.882975
1203 2 0.446619 0.24994 0.627683
961 1 0.426785 0.126689 0.961042
294 2 0.307007 0.360867 0.903448
1132 1 0.422174 0.0496227 0.81764
1134 2 0.425823 0.0621392 0.86989
292 1 0.301259 0.314438 0.878889
1139 2 0.427679 0.318034 0.999755
1140 2 0.399863 0.290627 0.958873
1138 1 0.419874 0.275846 0.9715
1521 2 0.445217 0.307915 0.887746
1484 2 0.440477 0.300364 0.766778
183 2 0.273932 0.195743 0.689098
445 1 0.397771 0.173151 0.76605
446 2 0.385709 0.192063 0.806946
447 2 0.404624 0.124501 0.783421
1485 2 0.420025 0.245642 0.725166
1483 1 0.429741 0.293962 0.720032
182 2 0.300225 0.165431 0.734243
470 2 0.340943 0.122616 0.681158
471 2 0.357014 0.152415 0.75098
975 2 0.415979 0.485633 0.73022
973 1 0.434225 0.458524 0.72124
586 1 0.478218 0.451693 0.604072
588 2 0.492617 0.41166 0.609252
974 2 0.428303 0.406215 0.718164
1006 1 0.281301 0.116985 0.528248
883 1 0.347107 0.101139 0.591584
884 2 0.357837 0.109426 0.545127
885 2 0.326571 0.109146 0.578321
1015 1 0.414857 0.124757 0.612096
713 2 0.357499 0.197646 0.912466
1352 2 0.359526 0.459639 0.784918
469 1 0.337963 0.134289 0.733876
712 1 0.363295 0.231746 0.87256
9 4 0.357266 0.324546 0.575538
10 3 0.366452 0.276835 0.531775
12 5 0.375308 0.23014 0.568923
14 5 0.411535 0.330898 0.531494
714 2 0.344977 0.255007 0.856517
5 7 0.364007 0.396668 0.64378
7 5 0.316922 0.290622 0.587359
8 5 0.342331 0.252792 0.659368
6 3 0.338644 0.305612 0.619033
1 3 0.332031 0.368364 0.676396
4 6 0.35387 0.393383 0.693
3 5 0.319908 0.413243 0.642977
1017 2 0.400673 0.137101 0.651043
293 2 0.28449 0.328231 0.847898
1016 2 0.418586 0.071466 0.618649
1068 2 0.372483 0.443847 0.918021
324 2 0.265778 0.202353 0.568664
1351 1 0.363843 0.487496 0.830482
2 5 0.31727 0.351458 0.727507
1365 2 0.492982 0.00236986 0.772221
1043 2 0.263742 0.0688667 0.663171
1520 2 0.464425 0.374244 0.862321
539 2 0.477271 0.0928997 0.722699
761 2 0.456788 0.498786 0.530817
816 2 0.460255 0.48693 0.81519
468 2 0.298132 0.499562 0.883735
1067 2 0.371264 0.494487 0.987754
467 2 0.329343 0.467775 0.894398
466 1 0.308724 0.456898 0.90437
1519 1 0.462235 0.320264 0.857026
814 1 0.470087 0.467813 0.859699
1509 2 0.469807 0.0523511 0.600015
763 1 0.258008 0.371964 0.504724
1380 2 0.498194 0.293477 0.816645
1070 2 0.495665 0.21322 0.989792
1108 1 0.366676 0.735893 0.778449
1551 2 0.442063 0.673542 0.885079
507 2 0.291082 0.551133 0.508403
458 2 0.252055 0.539918 0.648701
1010 2 0.294951 0.699717 0.979245
595 1 0.440824 0.626208 0.647616
378 2 0.264779 0.569566 0.794101
769 1 0.418432 0.888334 0.742578
218 2 0.402189 0.772291 0.995945
999 2 0.351862 0.731683 0.948942
971 2 0.409816 0.636237 0.732295
1434 2 0.475768 0.807932 0.655445
892 1 0.257155 0.999537 0.91334
792 2 0.291423 0.67921 0.591179
584 2 0.371697 0.659949 0.521637
1204 1 0.442495 0.98218 0.61235
1353 2 0.376129 0.52898 0.813935
627 2 0.321078 0.92215 0.904387
663 2 0.360372 0.995564 0.594046
762 2 0.439721 0.566387 0.562111
1103 2 0.364226 0.882448 0.521467
230 2 0.270263 0.845664 0.802012
1110 2 0.366557 0.737683 0.832944
1364 2 0.493703 0.934257 0.82508
1363 1 0.490949 0.948094 0.772808
479 2 0.255442 0.878601 0.637772
997 1 0.368231 0.763685 0.934358
790 1 0.300315 0.640704 0.55991
791 2 0.321404 0.648747 0.565033
1206 2 0.441736 0.946454 0.571205
626 2 0.314997 0.844696 0.869779
1082 2 0.381337 0.970004 0.90763
1205 2 0.436483 0.953477 0.656109
948 2 0.340902 0.605561 0.982194
1502 2 0.469259 0.801801 0.87555
721 1 0.433555 0.773951 0.6355
229 1 0.279027 0.80183 0.825544
929 2 0.339283 0.888944 0.758396
625 1 0.33036 0.874178 0.893739
1083 2 0.378957 0.94082 0.988551
1026 2 0.311682 0.883327 0.64423
893 2 0.270502 0.974908 0.948152
1081 1 0.39164 0.939731 0.944625
1044 2 0.270413 0.994274 0.62337
376 1 0.270276 0.566586 0.846715
1273 1 0.49013 0.886109 0.915294
1104 2 0.359191 0.797641 0.512512
1413 2 0.492166 0.621591 0.946298
1004 2 0.264095 0.771708 0.654774
661 1 0.368197 0.944837 0.595785
1544 2 0.424281 0.922555 0.998565
1550 2 0.439494 0.638269 0.963499
1009 1 0.312728 0.686302 0.95195
930 2 0.344521 0.81232 0.721143
723 2 0.43346 0.814239 0.672239
583 1 0.362892 0.687151 0.563238
662 2 0.358933 0.922384 0.63952
1024 1 0.29645 0.900208 0.609813
970 1 0.399721 0.601931 0.765996
597 2 0.460545 0.619765 0.667889
1025 2 0.301802 0.877999 0.561915
377 2 0.253073 0.584875 0.873563
1501 1 0.458978 0.759043 0.854107
231 2 0.280212 0.764891 0.785552
1549 1 0.432825 0.632381 0.91202
1005 2 0.255919 0.69926 0.696663
1274 2 0.475688 0.895279 0.954503
1011 2 0.306408 0.647738 0.916922
722 2 0.432706 0.799377 0.587315
585 2 0.379472 0.700907 0.5949
771 2 0.420879 0.923459 0.783813
770 2 0.409413 0.844438 0.765361
760 1 0.445332 0.542195 0.515381
596 2 0.440116 0.678386 0.631894
972 2 0.409786 0.607923 0.813751
928 1 0.337366 0.862675 0.710866
1109 2 0.362253 0.683918 0.766416
998 2 0.359571 0.813274 0.929081
1003 1 0.271876 0.722962 0.669073
1432 1 0.494696 0.81469 0.680055
1433 2 0.492681 0.861507 0.707528
1503 2 0.470135 0.746737 0.809219
815 2 0.48166 0.509906 0.877958
50 5 0.611897 0.420012 0.207114
1620 2 0.621808 0.185457 0.0263601
843 2 0.549231 0.174444 0.152082
1618 1 0.603048 0.160623 0.0176587
1486 1 0.664298 0.205202 0.0495984
1487 2 0.67738 0.168356 0.0270958
841 1 0.545752 0.151828 0.103266
1488 2 0.675517 0.251644 0.048944
1611 2 0.649475 0.275364 0.330205
1609 1 0.648206 0.312286 0.290214
1335 2 0.679474 0.382838 0.00725352
1333 1 0.689327 0.340259 0.030294
1334 2 0.690236 0.352802 0.0833062
1623 2 0.643148 0.0336993 0.265007
1358 2 0.650654 0.148153 0.138487
1359 2 0.635375 0.169636 0.212394
1357 1 0.650978 0.138275 0.192103
1610 2 0.628725 0.334241 0.295852
734 2 0.565555 0.368271 0.294504
934 1 0.525169 0.201788 0.253201
935 2 0.535802 0.212681 0.299261
936 2 0.505027 0.192614 0.26932
842 2 0.564911 0.152382 0.0788926
1449 2 0.711851 0.332156 0.203233
1448 2 0.680275 0.350766 0.228314
1447 1 0.693479 0.353859 0.185494
1322 2 0.598501 0.0394535 0.0372301
733 1 0.582143 0.355714 0.32663
735 2 0.573476 0.32771 0.367885
1784 2 0.687545 0.170193 0.23911
1558 1 0.708446 0.100267 0.000442245
42 5 0.547381 0.383122 0.138794
49 5 0.634543 0.429358 0.121679
1559 2 0.7285 0.111618 0.015864
990 2 0.59794 0.456238 0.364785
919 1 0.50973 0.039032 0.062293
53 5 0.665756 0.475518 0.197794
48 3 0.617661 0.461039 0.158808
46 5 0.587777 0.426658 0.0685624
38 3 0.524809 0.474507 0.204557
44 4 0.567389 0.478915 0.155787
41 3 0.545625 0.449497 0.142191
1071 2 0.514147 0.223758 0.0612904
921 2 0.525354 0.0734792 0.0765941
37 4 0.528169 0.440447 0.263283
45 3 0.588027 0.468627 0.116838
1504 1 0.71945 0.148368 0.409311
1069 1 0.500619 0.249925 0.02809
1755 2 0.710089 0.474633 0.432318
1506 2 0.719149 0.146167 0.354836
1513 1 0.737115 0.472593 0.170738
1431 2 0.637907 0.0466083 0.407166
1515 2 0.721828 0.434623 0.174837
1247 2 0.675901 0.185781 0.410831
1785 2 0.721031 0.182784 0.235663
1783 1 0.706192 0.148462 0.254845
1561 1 0.707176 0.0172459 0.139822
1563 2 0.700148 0.0244739 0.0888257
34 3 0.511677 0.450357 0.315131
1429 1 0.63283 0.0688273 0.455251
35 5 0.527403 0.447941 0.364438
1562 2 0.700653 0.061762 0.166573
1248 2 0.644151 0.169648 0.43621
1395 2 0.515444 0.0727093 0.450124
920 2 0.501027 0.0614465 0.0177993
1246 1 0.656951 0.209842 0.419012
1377 2 0.512074 0.230693 0.435411
1127 2 0.72368 0.335864 0.468588
901 1 0.55287 0.267742 0.44528
1440 2 0.736014 0.457241 0.342269
43 5 0.536204 0.477225 0.0858752
1148 2 0.745044 0.000172195 0.182258
40 5 0.501141 0.472803 0.181159
1126 1 0.733772 0.300418 0.436085
1128 2 0.738394 0.329067 0.39121
1505 2 0.726439 0.198632 0.420712
1430 2 0.613516 0.0483808 0.466986
1393 1 0.519771 0.0215919 0.465573
903 2 0.548483 0.300082 0.487734
902 2 0.562977 0.224914 0.467117
2011 1 0.747821 0.256908 0.219129
33 5 0.501174 0.32685 0.329457
1321 1 0.600602 0.985512 0.0431216
39 5 0.526374 0.538763 0.214394
1753 1 0.709508 0.506893 0.388385
1754 2 0.689431 0.525842 0.387053
54 5 0.636454 0.511827 0.271409
52 3 0.64763 0.520129 0.212417
1621 1 0.635366 0.996815 0.299937
988 1 0.600074 0.504447 0.389671
1345 1 0.524648 0.655 0.0851336
1347 2 0.529917 0.707648 0.0805205
1394 2 0.521612 0.993897 0.41884
1466 2 0.72955 0.597883 0.451468
848 2 0.509832 0.605874 0.435212
1323 2 0.581418 0.965376 0.0296017
777 2 0.52718 0.928793 0.284937
47 5 0.585978 0.528025 0.0937269
1290 2 0.731828 0.715094 0.148471
775 1 0.542773 0.952276 0.314021
1586 2 0.664259 0.900151 0.115202
51 4 0.626457 0.519345 0.174164
1307 2 0.555372 0.805269 0.121151
1587 2 0.6392 0.938249 0.0714303
1585 1 0.657672 0.911512 0.0645789
879 2 0.592766 0.945981 0.152768
1622 2 0.619941 0.97127 0.272032
989 2 0.595899 0.541173 0.350797
877 1 0.590348 0.939629 0.206571
878 2 0.589462 0.885631 0.213792
1350 2 0.574986 0.740155 0.210645
1349 2 0.596437 0.747129 0.144265
59 3 0.667735 0.677247 0.291579
63 5 0.668199 0.766984 0.375323
1348 1 0.58658 0.776522 0.182729
1537 1 0.692591 0.857861 0.18184
1386 2 0.515561 0.692213 0.259605
1538 2 0.691704 0.865007 0.235848
1539 2 0.703094 0.901642 0.163364
1088 2 0.61711 0.664125 0.0395366
1089 2 0.638616 0.721014 0.0742258
1087 1 0.618133 0.705108 0.0754049
1288 1 0.714485 0.731888 0.121235
1653 2 0.608486 0.592013 0.246351
1651 1 0.589219 0.595001 0.269981
1530 2 0.564112 0.673328 0.299759
1528 1 0.549162 0.712085 0.304501
1529 2 0.558115 0.749761 0.336658
1652 2 0.576375 0.566065 0.23732
1235 2 0.70272 0.77935 0.031069
1289 2 0.70397 0.763459 0.156727
60 5 0.685999 0.643717 0.321173
57 5 0.658138 0.62856 0.153078
56 5 0.688005 0.594009 0.206237
55 3 0.662387 0.601119 0.209245
58 4 0.652236 0.636263 0.261459
1284 2 0.504088 0.850207 0.175056
66 7 0.629604 0.658422 0.34323
61 5 0.680088 0.717616 0.253361
2063 2 0.665759 0.944342 0.318945
1181 2 0.715924 0.623962 0.0998941
2064 2 0.677988 0.891984 0.379987
64 5 0.635924 0.780702 0.30194
62 3 0.649914 0.736862 0.336857
2062 1 0.682466 0.912308 0.330692
1180 1 0.713287 0.580575 0.0675608
65 6 0.633425 0.703649 0.373749
1902 2 0.608581 0.817776 0.404404
1040 2 0.546627 0.855373 0.420237
1039 1 0.532979 0.828052 0.452168
1373 2 0.728628 0.930694 0.331496
1308 2 0.532832 0.846149 0.071422
1306 1 0.536207 0.799098 0.0976001
1800 2 0.638274 0.528682 0.419428
1798 1 0.655982 0.559075 0.423565
1900 1 0.593028 0.854313 0.412793
1041 2 0.543859 0.819532 0.498356
1459 1 0.666086 0.86902 0.476968
1460 2 0.678115 0.829168 0.498112
1182 2 0.722064 0.53928 0.0952839
776 2 0.557237 0.967749 0.276903
1465 1 0.731896 0.643166 0.481247
1901 2 0.603381 0.900545 0.424668
1799 2 0.648937 0.608028 0.43953
1598 2 0.736287 0.780518 0.365524
1346 2 0.504023 0.652942 0.0705654
1599 2 0.741009 0.727682 0.298437
1597 1 0.728114 0.736442 0.341082
1493 2 0.564346 0.515562 0.449672
1385 2 0.508182 0.67237 0.177812
1967 2 0.595508 0.764788 0.0121304
1372 1 0.749792 0.924458 0.337126
1236 2 0.685361 0.847649 0.00244846
1492 1 0.545484 0.520223 0.475083
1467 2 0.735035 0.682701 0.444558
1329 2 0.500004 0.784946 0.43885
1619 2 0.593099 0.19213 0.981068
2041 1 0.505091 0.388672 0.98582
1481 2 0.736792 0.326962 0.658462
1219 1 0.666017 0.480664 0.96287
1641 2 0.540137 0.409225 0.943564
1281 2 0.728728 0.318939 0.981838
1480 1 0.737398 0.379803 0.645103
394 1 0.502731 0.117949 0.92648
1605 2 0.749374 0.422096 0.82211
2043 2 0.501276 0.336863 0.999765
1249 1 0.581958 0.259176 0.906527
1250 2 0.574226 0.305172 0.928204
1560 2 0.70944 0.0970898 0.946069
1906 1 0.707557 0.432834 0.529318
1300 1 0.508144 0.31688 0.650446
1379 2 0.524645 0.240298 0.825278
866 2 0.537644 0.355686 0.597684
1639 1 0.559261 0.40811 0.919033
1640 2 0.565184 0.460432 0.916191
1378 1 0.516165 0.277433 0.791693
396 2 0.521079 0.12889 0.900563
1176 2 0.65266 0.0369483 0.536791
1311 2 0.720099 0.0816874 0.503026
1309 1 0.721958 0.068816 0.555798
1302 2 0.510907 0.308319 0.703833
1908 2 0.693208 0.46483 0.554115
1478 2 0.531784 0.0873635 0.661094
1267 1 0.608759 0.386653 0.641282
1917 2 0.666665 0.425971 0.876802
1477 1 0.547786 0.114876 0.684688
1479 2 0.561667 0.124326 0.644253
1637 2 0.62435 0.297706 0.627233
1269 2 0.598328 0.392325 0.688566
1268 2 0.623678 0.425767 0.642153
1638 2 0.647853 0.265931 0.57387
1141 1 0.723131 0.253709 0.719293
1425 2 0.698379 0.110773 0.812715
1915 1 0.671826 0.402228 0.82951
1423 1 0.706522 0.144107 0.850559
1916 2 0.686152 0.435916 0.806968
1251 2 0.601317 0.27294 0.887687