ITEM: TIMESTEP
0
ITEM: NUMBER OF ATOMS
576
ITEM: BOX BOUNDS pp pp pp
0.0000000000000000e+00 2.0585577711599999e+01
0.0000000000000000e+00 2.0585577711599999e+01
0.0000000000000000e+00 2.0585577711599999e+01
ITEM: ATOMS id type xs ys zs
151 2 0.0145715 0.0855963 0.0437758
295 2 0.0145715 0.0855963 0.293776
187 2 0.0145715 0.335596 0.0437758
331 2 0.0145715 0.335596 0.293776
11 1 0.193922 0.0971304 0.087524
155 1 0.193922 0.0971304 0.337524
160 2 0.264572 0.0855963 0.0437758
304 2 0.264572 0.0855963 0.293776
47 1 0.193922 0.34713 0.087524
191 1 0.193922 0.34713 0.337524
196 2 0.264572 0.335596 0.0437758
340 2 0.264572 0.335596 0.293776
1 1 0.112157 0 0.175048
4 2 0.0668428 0.0554174 0.206224
145 1 0.112157 0 0.425048
148 2 0.0668428 0.0554174 0.456224
37 1 0.112157 0.25 0.175048
40 2 0.0668428 0.305417 0.206224
181 1 0.112157 0.25 0.425048
184 2 0.0668428 0.305417 0.456224
13 2 0.316843 0.0554174 0.206224
14 2 0.168586 0.0301788 0.381272
157 2 0.316843 0.0554174 0.456224
446 2 0.168586 0.0301788 0.131272
49 2 0.316843 0.305417 0.206224
50 2 0.168586 0.280179 0.381272
193 2 0.316843 0.305417 0.456224
482 2 0.168586 0.280179 0.131272
42 2 0.0145715 0.164404 0.293748
474 2 0.0145715 0.164404 0.0437482
78 2 0.0145715 0.414404 0.293748
510 2 0.0145715 0.414404 0.0437482
48 1 0.193922 0.15287 0
51 2 0.264572 0.164404 0.293748
192 1 0.193922 0.15287 0.25
483 2 0.264572 0.164404 0.0437482
84 1 0.193922 0.40287 0
87 2 0.264572 0.414404 0.293748
228 1 0.193922 0.40287 0.25
519 2 0.264572 0.414404 0.0437482
189 2 0.0668428 0.194583 0.1313
333 2 0.0668428 0.194583 0.3813
225 2 0.0668428 0.444583 0.1313
369 2 0.0668428 0.444583 0.3813
197 2 0.168586 0.219821 0.218824
198 2 0.316843 0.194583 0.1313
341 2 0.168586 0.219821 0.468824
342 2 0.316843 0.194583 0.3813
233 2 0.168586 0.469821 0.218824
234 2 0.316843 0.444583 0.1313
377 2 0.168586 0.469821 0.468824
378 2 0.316843 0.444583 0.3813
20 1 0.443922 0.0971304 0.087524
164 1 0.443922 0.0971304 0.337524
169 2 0.514572 0.0855963 0.0437758
313 2 0.514572 0.0855963 0.293776
56 1 0.443922 0.34713 0.087524
200 1 0.443922 0.34713 0.337524
205 2 0.514572 0.335596 0.0437758
349 2 0.514572 0.335596 0.293776
10 1 0.362157 0 0.175048
154 1 0.362157 0 0.425048
46 1 0.362157 0.25 0.175048
190 1 0.362157 0.25 0.425048
19 1 0.612157 0 0.175048
22 2 0.566843 0.0554174 0.206224
23 2 0.418586 0.0301788 0.381272
163 1 0.612157 0 0.425048
166 2 0.566843 0.0554174 0.456224
455 2 0.418586 0.0301788 0.131272
55 1 0.612157 0.25 0.175048
58 2 0.566843 0.305417 0.206224
59 2 0.418586 0.280179 0.381272
199 1 0.612157 0.25 0.425048
202 2 0.566843 0.305417 0.456224
491 2 0.418586 0.280179 0.131272
57 1 0.443922 0.15287 0
60 2 0.514572 0.164404 0.293748
201 1 0.443922 0.15287 0.25
492 2 0.514572 0.164404 0.0437482
93 1 0.443922 0.40287 0
96 2 0.514572 0.414404 0.293748
237 1 0.443922 0.40287 0.25
528 2 0.514572 0.414404 0.0437482
206 2 0.418586 0.219821 0.218824
207 2 0.566843 0.194583 0.1313
350 2 0.418586 0.219821 0.468824
351 2 0.566843 0.194583 0.3813
242 2 0.418586 0.469821 0.218824
243 2 0.566843 0.444583 0.1313
386 2 0.418586 0.469821 0.468824
387 2 0.566843 0.444583 0.3813
2 1 0.943922 0.0971304 0.087524
146 1 0.943922 0.0971304 0.337524
38 1 0.943922 0.34713 0.087524
182 1 0.943922 0.34713 0.337524
29 1 0.693922 0.0971304 0.087524
173 1 0.693922 0.0971304 0.337524
178 2 0.764572 0.0855963 0.0437758
322 2 0.764572 0.0855963 0.293776
65 1 0.693922 0.34713 0.087524
209 1 0.693922 0.34713 0.337524
214 2 0.764572 0.335596 0.0437758
358 2 0.764572 0.335596 0.293776
5 2 0.918586 0.0301788 0.381272
437 2 0.918586 0.0301788 0.131272
41 2 0.918586 0.280179 0.381272
473 2 0.918586 0.280179 0.131272
28 1 0.862157 0 0.175048
31 2 0.816843 0.0554174 0.206224
32 2 0.668586 0.0301788 0.381272
172 1 0.862157 0 0.425048
175 2 0.816843 0.0554174 0.456224
464 2 0.668586 0.0301788 0.131272
64 1 0.862157 0.25 0.175048
67 2 0.816843 0.305417 0.206224
68 2 0.668586 0.280179 0.381272
208 1 0.862157 0.25 0.425048
211 2 0.816843 0.305417 0.456224
500 2 0.668586 0.280179 0.131272
39 1 0.943922 0.15287 0
183 1 0.943922 0.15287 0.25
75 1 0.943922 0.40287 0
219 1 0.943922 0.40287 0.25
66 1 0.693922 0.15287 0
69 2 0.764572 0.164404 0.293748
210 1 0.693922 0.15287 0.25
501 2 0.764572 0.164404 0.0437482
102 1 0.693922 0.40287 0
105 2 0.764572 0.414404 0.293748
246 1 0.693922 0.40287 0.25
537 2 0.764572 0.414404 0.0437482
188 2 0.918586 0.219821 0.218824
332 2 0.918586 0.219821 0.468824
224 2 0.918586 0.469821 0.218824
368 2 0.918586 0.469821 0.468824
215 2 0.668586 0.219821 0.218824
216 2 0.816843 0.194583 0.1313
359 2 0.668586 0.219821 0.468824
360 2 0.816843 0.194583 0.3813
251 2 0.668586 0.469821 0.218824
252 2 0.816843 0.444583 0.1313
395 2 0.668586 0.469821 0.468824
396 2 0.816843 0.444583 0.3813
7 2 0.0145715 0.0855963 0.793776
439 2 0.0145715 0.0855963 0.543776
43 2 0.0145715 0.335596 0.793776
475 2 0.0145715 0.335596 0.543776
16 2 0.264572 0.0855963 0.793776
299 1 0.193922 0.0971304 0.587524
443 1 0.193922 0.0971304 0.837524
448 2 0.264572 0.0855963 0.543776
52 2 0.264572 0.335596 0.793776
335 1 0.193922 0.34713 0.587524
479 1 0.193922 0.34713 0.837524
484 2 0.264572 0.335596 0.543776
289 1 0.112157 0 0.675048
292 2 0.0668428 0.0554174 0.706224
433 1 0.112157 0 0.925048
436 2 0.0668428 0.0554174 0.956224
325 1 0.112157 0.25 0.675048
328 2 0.0668428 0.305417 0.706224
469 1 0.112157 0.25 0.925048
472 2 0.0668428 0.305417 0.956224
158 2 0.168586 0.0301788 0.631272
301 2 0.316843 0.0554174 0.706224
302 2 0.168586 0.0301788 0.881272
445 2 0.316843 0.0554174 0.956224
194 2 0.168586 0.280179 0.631272
337 2 0.316843 0.305417 0.706224
338 2 0.168586 0.280179 0.881272
481 2 0.316843 0.305417 0.956224
186 2 0.0145715 0.164404 0.543748
330 2 0.0145715 0.164404 0.793748
222 2 0.0145715 0.414404 0.543748
366 2 0.0145715 0.414404 0.793748
195 2 0.264572 0.164404 0.543748
336 1 0.193922 0.15287 0.5
339 2 0.264572 0.164404 0.793748
480 1 0.193922 0.15287 0.75
231 2 0.264572 0.414404 0.543748
372 1 0.193922 0.40287 0.5
375 2 0.264572 0.414404 0.793748
516 1 0.193922 0.40287 0.75
45 2 0.0668428 0.194583 0.8813
477 2 0.0668428 0.194583 0.6313
81 2 0.0668428 0.444583 0.8813
513 2 0.0668428 0.444583 0.6313
53 2 0.168586 0.219821 0.968824
54 2 0.316843 0.194583 0.8813
485 2 0.168586 0.219821 0.718824
486 2 0.316843 0.194583 0.6313
89 2 0.168586 0.469821 0.968824
90 2 0.316843 0.444583 0.8813
521 2 0.168586 0.469821 0.718824
522 2 0.316843 0.444583 0.6313
25 2 0.514572 0.0855963 0.793776
308 1 0.443922 0.0971304 0.587524
452 1 0.443922 0.0971304 0.837524
457 2 0.514572 0.0855963 0.543776
61 2 0.514572 0.335596 0.793776
344 1 0.443922 0.34713 0.587524
488 1 0.443922 0.34713 0.837524
493 2 0.514572 0.335596 0.543776
298 1 0.362157 0 0.675048
442 1 0.362157 0 0.925048
334 1 0.362157 0.25 0.675048
478 1 0.362157 0.25 0.925048
167 2 0.418586 0.0301788 0.631272
307 1 0.612157 0 0.675048
310 2 0.566843 0.0554174 0.706224
311 2 0.418586 0.0301788 0.881272
451 1 0.612157 0 0.925048
454 2 0.566843 0.0554174 0.956224
203 2 0.418586 0.280179 0.631272
343 1 0.612157 0.25 0.675048
346 2 0.566843 0.305417 0.706224
347 2 0.418586 0.280179 0.881272
487 1 0.612157 0.25 0.925048
490 2 0.566843 0.305417 0.956224
204 2 0.514572 0.164404 0.543748
345 1 0.443922 0.15287 0.5
348 2 0.514572 0.164404 0.793748
489 1 0.443922 0.15287 0.75
240 2 0.514572 0.414404 0.543748
381 1 0.443922 0.40287 0.5
384 2 0.514572 0.414404 0.793748
525 1 0.443922 0.40287 0.75
62 2 0.418586 0.219821 0.968824
63 2 0.566843 0.194583 0.8813
494 2 0.418586 0.219821 0.718824
495 2 0.566843 0.194583 0.6313
98 2 0.418586 0.469821 0.968824
99 2 0.566843 0.444583 0.8813
530 2 0.418586 0.469821 0.718824
531 2 0.566843 0.444583 0.6313
290 1 0.943922 0.0971304 0.587524
434 1 0.943922 0.0971304 0.837524
326 1 0.943922 0.34713 0.587524
470 1 0.943922 0.34713 0.837524
34 2 0.764572 0.0855963 0.793776
317 1 0.693922 0.0971304 0.587524
461 1 0.693922 0.0971304 0.837524
466 2 0.764572 0.0855963 0.543776
70 2 0.764572 0.335596 0.793776
353 1 0.693922 0.34713 0.587524
497 1 0.693922 0.34713 0.837524
502 2 0.764572 0.335596 0.543776
149 2 0.918586 0.0301788 0.631272
293 2 0.918586 0.0301788 0.881272
185 2 0.918586 0.280179 0.631272
329 2 0.918586 0.280179 0.881272
176 2 0.668586 0.0301788 0.631272
316 1 0.862157 0 0.675048
319 2 0.816843 0.0554174 0.706224
320 2 0.668586 0.0301788 0.881272
460 1 0.862157 0 0.925048
463 2 0.816843 0.0554174 0.956224
212 2 0.668586 0.280179 0.631272
352 1 0.862157 0.25 0.675048
355 2 0.816843 0.305417 0.706224
356 2 0.668586 0.280179 0.881272
496 1 0.862157 0.25 0.925048
499 2 0.816843 0.305417 0.956224
327 1 0.943922 0.15287 0.5
471 1 0.943922 0.15287 0.75
363 1 0.943922 0.40287 0.5
507 1 0.943922 0.40287 0.75
213 2 0.764572 0.164404 0.543748
354 1 0.693922 0.15287 0.5
357 2 0.764572 0.164404 0.793748
498 1 0.693922 0.15287 0.75
249 2 0.764572 0.414404 0.543748
390 1 0.693922 0.40287 0.5
393 2 0.764572 0.414404 0.793748
534 1 0.693922 0.40287 0.75
44 2 0.918586 0.219821 0.968824
476 2 0.918586 0.219821 0.718824
80 2 0.918586 0.469821 0.968824
512 2 0.918586 0.469821 0.718824
71 2 0.668586 0.219821 0.968824
72 2 0.816843 0.194583 0.8813
503 2 0.668586 0.219821 0.718824
504 2 0.816843 0.194583 0.6313
107 2 0.668586 0.469821 0.968824
108 2 0.816843 0.444583 0.8813
539 2 0.668586 0.469821 0.718824
540 2 0.816843 0.444583 0.6313
223 2 0.0145715 0.585596 0.0437758
367 2 0.0145715 0.585596 0.293776
259 2 0.0145715 0.835596 0.0437758
403 2 0.0145715 0.835596 0.293776
83 1 0.193922 0.59713 0.087524
227 1 0.193922 0.59713 0.337524
232 2 0.264572 0.585596 0.0437758
376 2 0.264572 0.585596 0.293776
119 1 0.193922 0.84713 0.087524
263 1 0.193922 0.84713 0.337524
268 2 0.264572 0.835596 0.0437758
412 2 0.264572 0.835596 0.293776
73 1 0.112157 0.5 0.175048
76 2 0.0668428 0.555417 0.206224
217 1 0.112157 0.5 0.425048
220 2 0.0668428 0.555417 0.456224
109 1 0.112157 0.75 0.175048
112 2 0.0668428 0.805417 0.206224
253 1 0.112157 0.75 0.425048
256 2 0.0668428 0.805417 0.456224
85 2 0.316843 0.555417 0.206224
86 2 0.168586 0.530179 0.381272
229 2 0.316843 0.555417 0.456224
518 2 0.168586 0.530179 0.131272
121 2 0.316843 0.805417 0.206224
122 2 0.168586 0.780179 0.381272
265 2 0.316843 0.805417 0.456224
554 2 0.168586 0.780179 0.131272
6 2 0.0145715 0.914404 0.293748
438 2 0.0145715 0.914404 0.0437482
114 2 0.0145715 0.664404 0.293748
546 2 0.0145715 0.664404 0.0437482
12 1 0.193922 0.90287 0
15 2 0.264572 0.914404 0.293748
156 1 0.193922 0.90287 0.25
447 2 0.264572 0.914404 0.0437482
120 1 0.193922 0.65287 0
123 2 0.264572 0.664404 0.293748
264 1 0.193922 0.65287 0.25
555 2 0.264572 0.664404 0.0437482
153 2 0.0668428 0.944583 0.1313
297 2 0.0668428 0.944583 0.3813
261 2 0.0668428 0.694583 0.1313
405 2 0.0668428 0.694583 0.3813
161 2 0.168586 0.969821 0.218824
162 2 0.316843 0.944583 0.1313
305 2 0.168586 0.969821 0.468824
306 2 0.316843 0.944583 0.3813
269 2 0.168586 0.719821 0.218824
270 2 0.316843 0.694583 0.1313
413 2 0.168586 0.719821 0.468824
414 2 0.316843 0.694583 0.3813
92 1 0.443922 0.59713 0.087524
236 1 0.443922 0.59713 0.337524
241 2 0.514572 0.585596 0.0437758
385 2 0.514572 0.585596 0.293776
128 1 0.443922 0.84713 0.087524
272 1 0.443922 0.84713 0.337524
277 2 0.514572 0.835596 0.0437758
421 2 0.514572 0.835596 0.293776
82 1 0.362157 0.5 0.175048
226 1 0.362157 0.5 0.425048
118 1 0.362157 0.75 0.175048
262 1 0.362157 0.75 0.425048
91 1 0.612157 0.5 0.175048
94 2 0.566843 0.555417 0.206224
95 2 0.418586 0.530179 0.381272
235 1 0.612157 0.5 0.425048
238 2 0.566843 0.555417 0.456224
527 2 0.418586 0.530179 0.131272
127 1 0.612157 0.75 0.175048
130 2 0.566843 0.805417 0.206224
131 2 0.418586 0.780179 0.381272
271 1 0.612157 0.75 0.425048
274 2 0.566843 0.805417 0.456224
563 2 0.418586 0.780179 0.131272
21 1 0.443922 0.90287 0
24 2 0.514572 0.914404 0.293748
165 1 0.443922 0.90287 0.25
456 2 0.514572 0.914404 0.0437482
129 1 0.443922 0.65287 0
132 2 0.514572 0.664404 0.293748
273 1 0.443922 0.65287 0.25
564 2 0.514572 0.664404 0.0437482
170 2 0.418586 0.969821 0.218824
171 2 0.566843 0.944583 0.1313
314 2 0.418586 0.969821 0.468824
315 2 0.566843 0.944583 0.3813
278 2 0.418586 0.719821 0.218824
279 2 0.566843 0.694583 0.1313
422 2 0.418586 0.719821 0.468824
423 2 0.566843 0.694583 0.3813
74 1 0.943922 0.59713 0.087524
218 1 0.943922 0.59713 0.337524
110 1 0.943922 0.84713 0.087524
254 1 0.943922 0.84713 0.337524
101 1 0.693922 0.59713 0.087524
245 1 0.693922 0.59713 0.337524
250 2 0.764572 0.585596 0.0437758
394 2 0.764572 0.585596 0.293776
137 1 0.693922 0.84713 0.087524
281 1 0.693922 0.84713 0.337524
286 2 0.764572 0.835596 0.0437758
430 2 0.764572 0.835596 0.293776
77 2 0.918586 0.530179 0.381272
509 2 0.918586 0.530179 0.131272
113 2 0.918586 0.780179 0.381272
545 2 0.918586 0.780179 0.131272
100 1 0.862157 0.5 0.175048
103 2 0.816843 0.555417 0.206224
104 2 0.668586 0.530179 0.381272
244 1 0.862157 0.5 0.425048
247 2 0.816843 0.555417 0.456224
536 2 0.668586 0.530179 0.131272
136 1 0.862157 0.75 0.175048
139 2 0.816843 0.805417 0.206224
140 2 0.668586 0.780179 0.381272
280 1 0.862157 0.75 0.425048
283 2 0.816843 0.805417 0.456224
572 2 0.668586 0.780179 0.131272
3 1 0.943922 0.90287 0
147 1 0.943922 0.90287 0.25
111 1 0.943922 0.65287 0
255 1 0.943922 0.65287 0.25
30 1 0.693922 0.90287 0
33 2 0.764572 0.914404 0.293748
174 1 0.693922 0.90287 0.25
465 2 0.764572 0.914404 0.0437482
138 1 0.693922 0.65287 0
141 2 0.764572 0.664404 0.293748
282 1 0.693922 0.65287 0.25
573 2 0.764572 0.664404 0.0437482
152 2 0.918586 0.969821 0.218824
296 2 0.918586 0.969821 0.468824
260 2 0.918586 0.719821 0.218824
404 2 0.918586 0.719821 0.468824
179 2 0.668586 0.969821 0.218824
180 2 0.816843 0.944583 0.1313
323 2 0.668586 0.969821 0.468824
324 2 0.816843 0.944583 0.3813
287 2 0.668586 0.719821 0.218824
288 2 0.816843 0.694583 0.1313
431 2 0.668586 0.719821 0.468824
432 2 0.816843 0.694583 0.3813
79 2 0.0145715 0.585596 0.793776
511 2 0.0145715 0.585596 0.543776
115 2 0.0145715 0.835596 0.793776
547 2 0.0145715 0.835596 0.543776
88 2 0.264572 0.585596 0.793776
371 1 0.193922 0.59713 0.587524
515 1 0.193922 0.59713 0.837524
520 2 0.264572 0.585596 0.543776
124 2 0.264572 0.835596 0.793776
407 1 0.193922 0.84713 0.587524
551 1 0.193922 0.84713 0.837524
556 2 0.264572 0.835596 0.543776
361 1 0.112157 0.5 0.675048
364 2 0.0668428 0.555417 0.706224
505 1 0.112157 0.5 0.925048
508 2 0.0668428 0.555417 0.956224
397 1 0.112157 0.75 0.675048
400 2 0.0668428 0.805417 0.706224
541 1 0.112157 0.75 0.925048
544 2 0.0668428 0.805417 0.956224
230 2 0.168586 0.530179 0.631272
373 2 0.316843 0.555417 0.706224
374 2 0.168586 0.530179 0.881272
517 2 0.316843 0.555417 0.956224
266 2 0.168586 0.780179 0.631272
409 2 0.316843 0.805417 0.706224
410 2 0.168586 0.780179 0.881272
553 2 0.316843 0.805417 0.956224
150 2 0.0145715 0.914404 0.543748
294 2 0.0145715 0.914404 0.793748
258 2 0.0145715 0.664404 0.543748
402 2 0.0145715 0.664404 0.793748
159 2 0.264572 0.914404 0.543748
300 1 0.193922 0.90287 0.5
303 2 0.264572 0.914404 0.793748
444 1 0.193922 0.90287 0.75
267 2 0.264572 0.664404 0.543748
408 1 0.193922 0.65287 0.5
411 2 0.264572 0.664404 0.793748
552 1 0.193922 0.65287 0.75
9 2 0.0668428 0.944583 0.8813
441 2 0.0668428 0.944583 0.6313
117 2 0.0668428 0.694583 0.8813
549 2 0.0668428 0.694583 0.6313
17 2 0.168586 0.969821 0.968824
18 2 0.316843 0.944583 0.8813
449 2 0.168586 0.969821 0.718824
450 2 0.316843 0.944583 0.6313
125 2 0.168586 0.719821 0.968824
126 2 0.316843 0.694583 0.8813
557 2 0.168586 0.719821 0.718824
558 2 0.316843 0.694583 0.6313
97 2 0.514572 0.585596 0.793776
380 1 0.443922 0.59713 0.587524
524 1 0.443922 0.59713 0.837524
529 2 0.514572 0.585596 0.543776
133 2 0.514572 0.835596 0.793776
416 1 0.443922 0.84713 0.587524
560 1 0.443922 0.84713 0.837524
565 2 0.514572 0.835596 0.543776
370 1 0.362157 0.5 0.675048
514 1 0.362157 0.5 0.925048
406 1 0.362157 0.75 0.675048
550 1 0.362157 0.75 0.925048
239 2 0.418586 0.530179 0.631272
379 1 0.612157 0.5 0.675048
382 2 0.566843 0.555417 0.706224
383 2 0.418586 0.530179 0.881272
523 1 0.612157 0.5 0.925048
526 2 0.566843 0.555417 0.956224
275 2 0.418586 0.780179 0.631272
415 1 0.612157 0.75 0.675048
418 2 0.566843 0.805417 0.706224
419 2 0.418586 0.780179 0.881272
559 1 0.612157 0.75 0.925048
562 2 0.566843 0.805417 0.956224
168 2 0.514572 0.914404 0.543748
309 1 0.443922 0.90287 0.5
312 2 0.514572 0.914404 0.793748
453 1 0.443922 0.90287 0.75
276 2 0.514572 0.664404 0.543748
417 1 0.443922 0.65287 0.5
420 2 0.514572 0.664404 0.793748
561 1 0.443922 0.65287 0.75
26 2 0.418586 0.969821 0.968824
27 2 0.566843 0.944583 0.8813
458 2 0.418586 0.969821 0.718824
459 2 0.566843 0.944583 0.6313
134 2 0.418586 0.719821 0.968824
135 2 0.566843 0.694583 0.8813
566 2 0.418586 0.719821 0.718824
567 2 0.566843 0.694583 0.6313
362 1 0.943922 0.59713 0.587524
506 1 0.943922 0.59713 0.837524
398 1 0.943922 0.84713 0.587524
542 1 0.943922 0.84713 0.837524
106 2 0.764572 0.585596 0.793776
389 1 0.693922 0.59713 0.587524
533 1 0.693922 0.59713 0.837524
538 2 0.764572 0.585596 0.543776
142 2 0.764572 0.835596 0.793776
425 1 0.693922 0.84713 0.587524
569 1 0.693922 0.84713 0.837524
574 2 0.764572 0.835596 0.543776
221 2 0.918586 0.530179 0.631272
365 2 0.918586 0.530179 0.881272
257 2 0.918586 0.780179 0.631272
401 2 0.918586 0.780179 0.881272
248 2 0.668586 0.530179 0.631272
388 1 0.862157 0.5 0.675048
391 2 0.816843 0.555417 0.706224
392 2 0.668586 0.530179 0.881272
532 1 0.862157 0.5 0.925048
535 2 0.816843 0.555417 0.956224
284 2 0.668586 0.780179 0.631272
424 1 0.862157 0.75 0.675048
427 2 0.816843 0.805417 0.706224
428 2 0.668586 0.780179 0.881272
568 1 0.862157 0.75 0.925048
571 2 0.816843 0.805417 0.956224
291 1 0.943922 0.90287 0.5
435 1 0.943922 0.90287 0.75
399 1 0.943922 0.65287 0.5
543 1 0.943922 0.65287 0.75
177 2 0.764572 0.914404 0.543748
318 1 0.693922 0.90287 0.5
321 2 0.764572 0.914404 0.793748
462 1 0.693922 0.90287 0.75
285 2 0.764572 0.664404 0.543748
426 1 0.693922 0.65287 0.5
429 2 0.764572 0.664404 0.793748
570 1 0.693922 0.65287 0.75
8 2 0.918586 0.969821 0.968824
440 2 0.918586 0.969821 0.718824
116 2 0.918586 0.719821 0.968824
548 2 0.918586 0.719821 0.718824
35 2 0.668586 0.969821 0.968824
36 2 0.816843 0.944583 0.8813
467 2 0.668586 0.969821 0.718824
468 2 0.816843 0.944583 0.6313
143 2 0.668586 0.719821 0.968824
144 2 0.816843 0.694583 0.8813
575 2 0.668586 0.719821 0.718824
576 2 0.816843 0.694583 0.6313
ITEM: TIMESTEP
5000
ITEM: NUMBER OF ATOMS
576
ITEM: BOX BOUNDS pp pp pp
0.0000000000000000e+00 2.0585577711599999e+01
0.0000000000000000e+00 2.0585577711599999e+01
0.0000000000000000e+00 2.0585577711599999e+01
ITEM: ATOMS id type xs ys zs
84 1 0.374195 0.482398 0.203216
177 2 0.301574 0.19764 0.479439
165 1 0.156352 0.469057 0.254764
477 2 0.96573 0.261642 0.253461
508 2 0.220833 0.279065 0.461016
146 1 0.177413 0.32525 0.26926
460 1 0.653534 0.0263258 0.0157645
369 2 0.449833 0.459381 0.158729
469 1 0.345282 0.0967921 0.20012
127 1 0.67056 0.0302226 0.391623
489 1 0.645309 0.391964 0.138395
191 1 0.421447 0.146807 0.380091
193 2 0.146814 0.0905467 0.197103
345 1 0.208514 0.261807 0.385561
147 1 0.894008 0.0127971 0.431523
341 2 0.269462 0.129954 0.201636
324 2 0.0531574 0.133724 0.133324
248 2 0.338756 0.481289 0.444824
558 2 0.401697 0.294633 0.241261
24 2 0.2607 0.29938 0.178862
516 1 0.146663 0.0494005 0.265462
35 2 0.786397 0.125794 0.443373
296 2 0.719361 0.0146197 0.0585439
176 2 0.100221 0.307664 0.37087
178 2 0.883052 0.0607479 0.375625
280 1 0.147619 0.477694 0.460416
406 1 0.460333 0.0251789 0.0530851
496 1 0.278016 0.458302 0.414113
448 2 0.225302 0.293537 0.322484
76 2 0.417573 0.233447 0.377741
161 2 0.189515 0.0207663 0.0594052
45 2 0.328194 0.0652024 0.127276
46 1 0.518653 0.470021 0.176846
30 1 0.0227647 0.226241 0.233296
476 2 0.161215 0.200297 0.367707
242 2 0.346529 0.327258 0.019188
240 2 0.396729 0.455205 0.287539
43 2 0.949678 0.170023 0.086994
188 2 0.0137342 0.267515 0.132537
118 1 0.451961 0.275727 0.307418
531 2 0.0182892 0.368159 0.34062
534 1 0.0474052 0.343317 0.403921
203 2 0.667817 0.452435 0.0679169
327 1 0.128912 0.125234 0.12892
438 2 0.108191 0.296112 0.248169
556 2 0.127569 0.083028 0.327783
459 2 0.652853 0.0801069 0.456017
243 2 0.194055 0.412479 0.281584
249 2 0.0102361 0.344883 0.467984
288 2 0.907259 0.143506 0.205874
393 2 0.936139 0.493721 0.0939299
13 2 0.223253 -0.00457288 0.253528
32 2 0.772718 0.140893 0.198362
65 1 0.686036 0.496906 0.490913
414 2 0.590596 0.42964 0.163582
170 2 0.365148 0.0940474 0.358718
330 2 0.953339 0.0281827 0.103999
95 2 0.508703 0.3178 0.340611
1 1 0.770398 0.408161 0.226453
194 2 0.578096 0.382283 0.460728
23 2 0.500218 0.285097 0.156594
202 2 0.493857 0.160255 0.379874
333 2 0.607768 0.205954 0.405155
483 2 0.474644 0.0100434 0.134797
111 1 0.215364 0.329557 0.130979
386 2 0.406778 0.366884 0.394686
200 1 0.660771 0.267834 0.396647
114 2 0.574092 0.101543 0.314622
329 2 0.0708899 0.383184 0.103802
158 2 0.664446 0.462456 0.418749
482 2 0.817318 0.436017 0.15761
225 2 0.0976635 0.433694 0.222832
525 1 0.624453 0.403005 0.394975
263 1 0.241185 0.0784778 0.0996715
491 2 0.641936 0.340056 0.361983
568 1 0.581258 0.070397 0.236341
526 2 0.180217 0.271153 0.0944459
213 2 0.0560646 0.116476 0.427629
503 2 0.314246 0.0285189 0.485636
128 1 0.582113 0.130735 0.0984525
428 2 0.509105 0.0980547 0.220246
119 1 0.561888 0.170044 0.344993
265 2 0.391069 0.157555 0.21911
85 2 0.597798 0.0642759 0.150983
529 2 0.30386 0.411844 0.346039
17 2 0.397445 0.241229 0.098256
336 1 0.895974 0.449288 0.142539
49 2 0.702348 0.384697 0.197453
125 2 0.710866 0.274742 0.0230176
287 2 0.565283 0.495307 0.302159
313 2 0.525798 0.216115 0.287541
82 1 0.424008 0.25979 0.166574
377 2 0.107988 0.407161 0.454554
363 1 0.416219 0.3167 0.468959
181 1 0.0870819 0.452322 0.145505
352 1 0.806907 0.422064 0.342217
515 1 0.177436 0.242589 0.0285674
555 2 0.305655 0.471992 0.195097
48 1 0.385911 0.267251 0.0111379
2 1 0.0391319 0.0950327 0.499725
222 2 0.943584 0.403164 0.17628
228 1 0.952454 0.323347 0.311104
54 2 0.43713 0.153972 0.493932
368 2 0.887671 0.37516 0.309637
209 1 0.939324 0.249821 0.443659
67 2 0.797304 0.178387 0.0559966
370 1 0.386803 0.403546 0.337767
29 1 0.00870475 0.338503 0.093496
68 2 0.807409 0.334713 0.05737
116 2 0.633074 0.315189 0.118418
11 1 0.836786 0.181459 0.224948
190 1 0.722608 0.202018 0.0572752
478 1 0.852573 0.324123 0.113673
463 2 0.0520467 0.172001 0.294473
230 2 0.190728 0.135045 0.0805959
314 2 0.700316 0.0366152 0.268222
64 1 0.896483 0.471845 0.452446
94 2 0.872172 0.240548 0.403405
502 2 0.678224 0.265512 0.472022
423 2 0.779334 0.462121 0.290947
234 2 0.828492 0.19282 0.298685
205 2 0.72059 0.238215 0.357234
81 2 0.821612 0.317223 0.198365
311 2 0.928195 0.334121 0.0938547
5 2 0.748536 0.369273 0.356371
134 2 0.184488 0.399024 0.141031
59 2 0.656515 0.166637 0.103931
201 1 0.809871 0.204377 0.378632
500 2 0.829626 0.457431 0.400809
210 1 0.0893738 0.14343 0.360055
60 2 0.590345 0.071498 0.0227803
38 1 0.965945 0.10328 0.12953
72 2 0.991815 0.229806 0.392694
562 2 0.520306 0.171611 0.0941269
346 2 0.457709 0.0129755 0.485549
129 1 0.766445 0.344936 0.00344725
522 2 0.209429 0.489262 0.490622
475 2 0.143503 0.323969 0.996789
52 2 0.187944 0.112273 0.683138
241 2 0.6473 0.475947 0.780627
135 2 0.344859 0.467431 0.99051
69 2 0.43615 0.438946 0.676817
524 1 0.327805 0.409232 0.956735
164 1 0.63579 0.285402 0.983268
184 2 0.454727 0.269972 0.518485
563 2 0.303933 0.186554 0.866923
366 2 0.939261 0.08441 0.807453
506 1 0.903453 0.45062 0.906526
375 2 0.267231 0.0235181 0.617071
328 2 0.331105 0.480595 0.761558
523 1 0.297107 0.430619 0.806481
283 2 0.0011018 0.440067 0.664672
207 2 0.832682 0.257466 0.669725
115 2 0.392417 0.0725908 0.590288
517 2 0.20499 0.226804 0.961046
480 1 0.24885 0.0284849 0.534678
552 1 0.985122 0.417553 0.79244
513 2 0.209427 0.298707 0.593188
326 1 0.156258 0.333931 0.629317
361 1 0.156492 0.40565 0.945179
505 1 0.188031 0.0878156 0.752927
499 2 0.930539 0.324561 0.867137
93 1 0.412321 0.438951 0.593441
18 2 0.391036 0.0607648 0.719723
468 2 0.268168 0.367087 0.775633
338 2 0.146708 0.372972 0.86045
229 2 0.0975356 0.460137 0.946165
549 2 0.829032 0.282699 0.789543
474 2 0.856945 0.457021 0.510737
557 2 0.333661 0.213093 0.974077
382 2 0.421686 0.350316 0.930555
399 1 0.771767 0.43975 0.869645
371 1 0.218647 0.140248 0.622
169 2 0.563027 0.243114 0.526429
347 2 0.272861 0.316176 0.906667
424 1 0.687572 0.440951 0.717713
167 2 0.380477 0.323975 0.658581
106 2 0.652878 0.378807 0.693702
514 1 0.487358 0.378109 0.973224
292 2 0.157493 0.279985 0.750634
464 2 0.881521 0.32005 0.578049
51 2 0.488583 0.264443 0.997031
107 2 0.102286 0.402938 0.596226
354 1 0.260327 0.250123 0.524526
461 1 0.197088 0.340402 0.768668
485 2 0.0796309 0.161136 0.659
325 1 0.0015075 0.133745 0.973908
453 1 0.339074 0.00970842 0.83078
155 1 0.863964 0.187403 0.559204
104 2 0.463427 0.44723 0.974969
66 1 0.500632 0.217808 0.778778
550 1 0.534242 0.198696 0.981075
75 1 0.272076 0.241205 0.935876
144 2 0.907026 0.429269 0.753483
493 2 0.609884 0.0613702 0.783739
467 2 0.519878 0.148445 0.783486
63 2 0.554727 0.00764893 0.902781
456 2 0.491181 0.135314 0.972201
289 1 0.0571209 0.149068 0.737673
575 2 0.464105 0.421697 0.541879
349 2 0.757288 0.404634 0.960202
350 2 0.434506 0.168512 0.876312
44 2 0.634326 0.244779 0.625426
21 1 0.350266 0.0443344 0.652911
419 2 0.409803 0.0609952 0.863614
486 2 0.821758 0.17605 0.742279
303 2 0.766589 0.000773111 0.861802
212 2 0.892305 0.131282 0.977151
383 2 0.219925 0.438465 0.987909
276 2 0.546275 0.239686 0.722036
395 2 0.538868 0.334676 0.647126
355 2 0.712235 0.4082 0.848806
497 1 0.436322 0.110046 0.923013
183 1 0.947141 0.341398 0.942836
160 2 0.489791 0.188358 0.611842
344 1 0.451239 0.333137 0.828104
442 1 0.377714 0.174332 0.821162
206 2 0.847059 0.279202 0.939187
385 2 0.354376 0.427874 0.877037
388 1 0.862362 0.133303 0.700874
540 2 0.477517 0.363816 0.759368
487 1 0.798955 0.245279 0.746709
70 2 0.579353 0.412182 0.853839
141 2 0.921212 0.217478 0.516583
57 1 0.749572 0.0548381 0.918047
56 1 0.481924 0.203884 0.526097
501 2 0.691175 0.0552256 0.96042
308 1 0.57117 0.00545914 0.828865
548 2 0.964489 0.306416 0.712215
53 2 0.192097 0.0997349 0.831549
266 2 0.788419 0.138324 0.907886
317 1 0.555569 0.213206 0.640365
334 1 0.452171 0.0810659 0.527846
492 2 0.417429 0.210918 0.761452
488 1 0.651431 0.299242 0.678074
189 2 0.784918 0.226099 0.553764
215 2 0.0944467 0.281278 0.626871
390 1 0.0549107 0.224062 0.596947
342 2 0.650056 0.296445 0.900657
570 1 0.0246804 0.412017 0.603396
343 1 0.562839 0.0903064 0.724809
312 2 0.763046 0.437103 0.722444
120 1 0.118174 0.0873827 0.878946
211 2 0.119442 0.0100756 0.896631
511 2 0.342755 0.470324 0.59678
80 2 0.899226 0.398047 0.972403
219 1 0.813594 0.289812 0.598418
171 2 0.209292 0.0130929 0.743537
434 1 0.771251 0.456221 0.610782
360 2 0.845344 0.42707 0.860095
34 2 0.034607 0.2188 0.753476
429 2 0.771115 0.355632 0.614424
58 2 0.611023 0.106736 0.669247
187 2 0.997735 0.192588 0.927691
528 2 0.886192 0.19402 0.855227
62 2 0.61015 0.489162 0.946464
431 2 0.713982 0.270491 0.723021
357 2 0.51471 0.0250447 0.734431
150 2 0.941276 0.132399 0.680825
299 1 0.929547 0.0155945 0.766363
426 1 0.462008 0.337814 0.681691
168 2 0.494029 0.273774 0.841277
117 2 0.178281 0.376328 0.694601
481 2 0.0499633 0.18947 0.52891
498 1 0.861867 0.145038 0.906639
353 1 0.881627 0.272255 0.843918
102 1 0.0354111 0.304067 0.732375
373 2 0.0412822 0.373283 0.763918
391 2 0.838233 0.113458 0.586833
504 2 0.861048 0.0477839 0.740146
192 1 0.624786 0.47114 0.851024
25 2 0.602632 0.215959 0.980346
9 2 0.0705153 0.0933704 0.81633
495 2 0.642918 0.142158 0.557823
196 2 0.281337 0.201277 0.620234
449 2 0.530718 0.0829414 0.543944
402 2 0.988887 0.0580739 0.964411
15 2 0.393347 0.103845 0.986331
137 1 0.634258 0.232404 0.524605
185 2 0.718338 0.446607 0.555396
79 2 0.96334 0.432727 0.862752
316 1 0.807613 0.0362097 0.593459
294 2 0.739317 0.0190753 0.565749
440 2 0.976647 0.479515 0.565486
384 2 0.23024 0.478811 0.822255
309 1 0.619102 0.0800478 0.518907
466 2 0.202847 0.105253 0.555433
422 2 0.0891152 0.118673 0.943482
151 2 0.0872703 0.0612041 0.537001
252 2 0.00901286 0.352491 0.987847
261 2 0.55806 0.364052 0.990551
186 2 0.331834 0.363298 0.518597
180 2 0.947321 0.0590046 0.519423
112 2 0.151475 0.649956 0.366462
518 2 0.990649 0.63647 0.114882
31 2 0.732892 0.977233 0.371297
98 2 0.558424 0.565435 0.4047
47 1 0.138809 0.608475 0.295382
381 1 0.209933 0.746074 0.189179
454 2 0.750948 0.534639 0.453246
262 1 0.00536545 0.571577 0.0796165
97 2 0.366881 0.576921 0.223011
340 2 0.0123598 0.869378 0.179947
179 2 0.280919 0.51987 0.0834903
74 1 0.0650851 0.778737 0.0270352
567 2 0.184254 0.777473 0.379921
236 1 0.176983 0.952985 0.0734416
298 1 0.377232 0.968626 0.464708
410 2 0.385849 0.895672 0.465929
543 1 0.101657 0.60844 0.420181
462 1 0.629176 0.753808 0.347467
279 2 0.0311855 0.631116 0.414052
83 1 0.0752834 0.869182 0.146723
413 2 0.189187 0.902555 0.0103912
100 1 0.37582 0.894564 0.0151384
130 2 0.329585 0.646731 0.320082
407 1 0.23759 0.510249 0.0178919
250 2 0.698328 0.574015 0.0280081
131 2 0.0814304 0.808299 0.0972209
521 2 0.102639 0.936535 0.0912559
40 2 0.103353 0.639542 0.232672
214 2 0.812503 0.975116 0.131217
221 2 0.95503 0.901645 0.303102
109 1 0.944176 0.882405 0.219398
394 2 0.0784841 0.982452 0.270013
121 2 0.212273 0.732985 0.115948
260 2 0.477012 0.947193 0.376314
277 2 0.394836 0.981468 0.0340287
271 1 0.343938 0.64667 0.235276
157 2 0.194754 0.507606 0.196922
14 2 0.227487 0.504196 0.369632
237 1 0.579205 0.631633 0.14635
77 2 0.482245 0.741242 0.489489
427 2 0.74063 0.670688 0.452224
232 2 0.0814177 0.531157 0.121861
416 1 0.274576 0.981126 0.304148
269 2 0.274013 0.695279 0.433486
226 1 0.346693 0.662623 0.393142
198 2 0.210216 0.613297 0.120176
378 2 0.262815 0.715954 0.232746
278 2 0.525094 0.610677 0.287848
418 2 0.421648 0.827812 0.292392
571 2 0.564614 0.516661 0.0555761
113 2 0.701633 0.777977 0.366333