ITEM: TIMESTEP
0
ITEM: NUMBER OF ATOMS
680
ITEM: BOX BOUNDS ff ff ff
-3.5000000000000000e+01 3.5000000000000000e+01
-3.5000000000000000e+01 3.5000000000000000e+01
-1.5000000000000000e+01 1.5000000000000000e+01
ITEM: ATOMS id type xs ys zs
1 1 0.22808 0.206271 0.5
2 1 0.210537 0.2164 0.5
3 1 0.210537 0.236657 0.5
4 1 0.22808 0.246786 0.5
6 1 0.245624 0.2164 0.5
7 1 0.245624 0.236657 0.5
5 1 0.263167 0.206271 0.5
8 1 0.263167 0.246786 0.5
9 1 0.298253 0.206271 0.5
10 1 0.28071 0.2164 0.5
11 1 0.28071 0.236657 0.5
12 1 0.298253 0.246786 0.5
13 1 0.33334 0.206271 0.5
14 1 0.315796 0.2164 0.5
15 1 0.315796 0.236657 0.5
16 1 0.33334 0.246786 0.5
17 1 0.368426 0.206271 0.5
18 1 0.350883 0.2164 0.5
19 1 0.350883 0.236657 0.5
20 1 0.368426 0.246786 0.5
21 1 0.403512 0.206271 0.5
22 1 0.385969 0.2164 0.5
23 1 0.385969 0.236657 0.5
24 1 0.403512 0.246786 0.5
25 1 0.438599 0.206271 0.5
26 1 0.421056 0.2164 0.5
27 1 0.421056 0.236657 0.5
28 1 0.438599 0.246786 0.5
29 1 0.473685 0.206271 0.5
30 1 0.456142 0.2164 0.5
31 1 0.456142 0.236657 0.5
32 1 0.473685 0.246786 0.5
34 1 0.491228 0.2164 0.5
35 1 0.491228 0.236657 0.5
33 1 0.508772 0.206271 0.5
36 1 0.508772 0.246786 0.5
37 1 0.543858 0.206271 0.5
38 1 0.526315 0.2164 0.5
39 1 0.526315 0.236657 0.5
40 1 0.543858 0.246786 0.5
41 1 0.578944 0.206271 0.5
42 1 0.561401 0.2164 0.5
43 1 0.561401 0.236657 0.5
44 1 0.578944 0.246786 0.5
45 1 0.614031 0.206271 0.5
46 1 0.596488 0.2164 0.5
47 1 0.596488 0.236657 0.5
48 1 0.614031 0.246786 0.5
49 1 0.649117 0.206271 0.5
50 1 0.631574 0.2164 0.5
51 1 0.631574 0.236657 0.5
52 1 0.649117 0.246786 0.5
53 1 0.684204 0.206271 0.5
54 1 0.66666 0.2164 0.5
55 1 0.66666 0.236657 0.5
56 1 0.684204 0.246786 0.5
57 1 0.71929 0.206271 0.5
58 1 0.701747 0.2164 0.5
59 1 0.701747 0.236657 0.5
60 1 0.71929 0.246786 0.5
62 1 0.736833 0.2164 0.5
63 1 0.736833 0.236657 0.5
61 1 0.754376 0.206271 0.5
64 1 0.754376 0.246786 0.5
65 1 0.789463 0.206271 0.5
66 1 0.77192 0.2164 0.5
67 1 0.77192 0.236657 0.5
68 1 0.789463 0.246786 0.5
69 1 0.22808 0.267043 0.5
70 1 0.210537 0.277171 0.5
71 1 0.210537 0.297429 0.5
72 1 0.22808 0.307557 0.5
74 1 0.245624 0.277171 0.5
75 1 0.245624 0.297429 0.5
137 1 0.22808 0.327814 0.5
138 1 0.210537 0.337943 0.5
139 1 0.210537 0.3582 0.5
140 1 0.22808 0.368329 0.5
142 1 0.245624 0.337943 0.5
143 1 0.245624 0.3582 0.5
73 1 0.263167 0.267043 0.5
76 1 0.263167 0.307557 0.5
77 1 0.298253 0.267043 0.5
78 1 0.28071 0.277171 0.5
79 1 0.28071 0.297429 0.5
80 1 0.298253 0.307557 0.5
81 1 0.33334 0.267043 0.5
82 1 0.315796 0.277171 0.5
83 1 0.315796 0.297429 0.5
84 1 0.33334 0.307557 0.5
85 1 0.368426 0.267043 0.5
86 1 0.350883 0.277171 0.5
87 1 0.350883 0.297429 0.5
88 1 0.368426 0.307557 0.5
141 1 0.263167 0.327814 0.5
144 1 0.263167 0.368329 0.5
145 1 0.298253 0.327814 0.5
146 1 0.28071 0.337943 0.5
147 1 0.28071 0.3582 0.5
148 1 0.298253 0.368329 0.5
149 1 0.33334 0.327814 0.5
150 1 0.315796 0.337943 0.5
151 1 0.315796 0.3582 0.5
152 1 0.33334 0.368329 0.5
153 1 0.368426 0.327814 0.5
154 1 0.350883 0.337943 0.5
155 1 0.350883 0.3582 0.5
156 1 0.368426 0.368329 0.5
89 1 0.403512 0.267043 0.5
90 1 0.385969 0.277171 0.5
91 1 0.385969 0.297429 0.5
92 1 0.403512 0.307557 0.5
93 1 0.438599 0.267043 0.5
94 1 0.421056 0.277171 0.5
95 1 0.421056 0.297429 0.5
96 1 0.438599 0.307557 0.5
97 1 0.473685 0.267043 0.5
98 1 0.456142 0.277171 0.5
99 1 0.456142 0.297429 0.5
100 1 0.473685 0.307557 0.5
102 1 0.491228 0.277171 0.5
103 1 0.491228 0.297429 0.5
157 1 0.403512 0.327814 0.5
158 1 0.385969 0.337943 0.5
159 1 0.385969 0.3582 0.5
160 1 0.403512 0.368329 0.5
161 1 0.438599 0.327814 0.5
162 1 0.421056 0.337943 0.5
163 1 0.421056 0.3582 0.5
164 1 0.438599 0.368329 0.5
165 1 0.473685 0.327814 0.5
166 1 0.456142 0.337943 0.5
167 1 0.456142 0.3582 0.5
168 1 0.473685 0.368329 0.5
170 1 0.491228 0.337943 0.5
171 1 0.491228 0.3582 0.5
101 1 0.508772 0.267043 0.5
104 1 0.508772 0.307557 0.5
105 1 0.543858 0.267043 0.5
106 1 0.526315 0.277171 0.5
107 1 0.526315 0.297429 0.5
108 1 0.543858 0.307557 0.5
109 1 0.578944 0.267043 0.5
110 1 0.561401 0.277171 0.5
111 1 0.561401 0.297429 0.5
112 1 0.578944 0.307557 0.5
113 1 0.614031 0.267043 0.5
114 1 0.596488 0.277171 0.5
115 1 0.596488 0.297429 0.5
116 1 0.614031 0.307557 0.5
169 1 0.508772 0.327814 0.5
172 1 0.508772 0.368329 0.5
173 1 0.543858 0.327814 0.5
174 1 0.526315 0.337943 0.5
175 1 0.526315 0.3582 0.5
176 1 0.543858 0.368329 0.5
177 1 0.578944 0.327814 0.5
178 1 0.561401 0.337943 0.5
179 1 0.561401 0.3582 0.5
180 1 0.578944 0.368329 0.5
181 1 0.614031 0.327814 0.5
182 1 0.596488 0.337943 0.5
183 1 0.596488 0.3582 0.5
184 1 0.614031 0.368329 0.5
117 1 0.649117 0.267043 0.5
118 1 0.631574 0.277171 0.5
119 1 0.631574 0.297429 0.5
120 1 0.649117 0.307557 0.5
121 1 0.684204 0.267043 0.5
122 1 0.66666 0.277171 0.5
123 1 0.66666 0.297429 0.5
124 1 0.684204 0.307557 0.5
125 1 0.71929 0.267043 0.5
126 1 0.701747 0.277171 0.5
127 1 0.701747 0.297429 0.5
128 1 0.71929 0.307557 0.5
130 1 0.736833 0.277171 0.5
131 1 0.736833 0.297429 0.5
185 1 0.649117 0.327814 0.5
186 1 0.631574 0.337943 0.5
187 1 0.631574 0.3582 0.5
188 1 0.649117 0.368329 0.5
189 1 0.684204 0.327814 0.5
190 1 0.66666 0.337943 0.5
191 1 0.66666 0.3582 0.5
192 1 0.684204 0.368329 0.5
193 1 0.71929 0.327814 0.5
194 1 0.701747 0.337943 0.5
195 1 0.701747 0.3582 0.5
196 1 0.71929 0.368329 0.5
198 1 0.736833 0.337943 0.5
199 1 0.736833 0.3582 0.5
129 1 0.754376 0.267043 0.5
132 1 0.754376 0.307557 0.5
133 1 0.789463 0.267043 0.5
134 1 0.77192 0.277171 0.5
135 1 0.77192 0.297429 0.5
136 1 0.789463 0.307557 0.5
197 1 0.754376 0.327814 0.5
200 1 0.754376 0.368329 0.5
201 1 0.789463 0.327814 0.5
202 1 0.77192 0.337943 0.5
203 1 0.77192 0.3582 0.5
204 1 0.789463 0.368329 0.5
205 1 0.22808 0.388586 0.5
206 1 0.210537 0.398714 0.5
207 1 0.210537 0.418971 0.5
208 1 0.22808 0.4291 0.5
210 1 0.245624 0.398714 0.5
211 1 0.245624 0.418971 0.5
273 1 0.22808 0.449357 0.5
274 1 0.210537 0.459486 0.5
275 1 0.210537 0.479743 0.5
276 1 0.22808 0.489871 0.5
278 1 0.245624 0.459486 0.5
279 1 0.245624 0.479743 0.5
209 1 0.263167 0.388586 0.5
212 1 0.263167 0.4291 0.5
213 1 0.298253 0.388586 0.5
214 1 0.28071 0.398714 0.5
215 1 0.28071 0.418971 0.5
216 1 0.298253 0.4291 0.5
217 1 0.33334 0.388586 0.5
218 1 0.315796 0.398714 0.5
219 1 0.315796 0.418971 0.5
220 1 0.33334 0.4291 0.5
221 1 0.368426 0.388586 0.5
222 1 0.350883 0.398714 0.5
223 1 0.350883 0.418971 0.5
224 1 0.368426 0.4291 0.5
277 1 0.263167 0.449357 0.5
280 1 0.263167 0.489871 0.5
281 1 0.298253 0.449357 0.5
282 1 0.28071 0.459486 0.5
283 1 0.28071 0.479743 0.5
284 1 0.298253 0.489871 0.5
285 1 0.33334 0.449357 0.5
286 1 0.315796 0.459486 0.5
287 1 0.315796 0.479743 0.5
288 1 0.33334 0.489871 0.5
289 1 0.368426 0.449357 0.5
290 1 0.350883 0.459486 0.5
291 1 0.350883 0.479743 0.5
292 1 0.368426 0.489871 0.5
225 1 0.403512 0.388586 0.5
226 1 0.385969 0.398714 0.5
227 1 0.385969 0.418971 0.5
228 1 0.403512 0.4291 0.5
229 1 0.438599 0.388586 0.5
230 1 0.421056 0.398714 0.5
231 1 0.421056 0.418971 0.5
232 1 0.438599 0.4291 0.5
233 1 0.473685 0.388586 0.5
234 1 0.456142 0.398714 0.5
235 1 0.456142 0.418971 0.5
236 1 0.473685 0.4291 0.5
238 1 0.491228 0.398714 0.5
239 1 0.491228 0.418971 0.5
293 1 0.403512 0.449357 0.5
294 1 0.385969 0.459486 0.5
295 1 0.385969 0.479743 0.5
296 1 0.403512 0.489871 0.5
297 1 0.438599 0.449357 0.5
298 1 0.421056 0.459486 0.5
299 1 0.421056 0.479743 0.5
300 1 0.438599 0.489871 0.5
301 1 0.473685 0.449357 0.5
302 1 0.456142 0.459486 0.5
303 1 0.456142 0.479743 0.5
304 1 0.473685 0.489871 0.5
306 1 0.491228 0.459486 0.5
307 1 0.491228 0.479743 0.5
237 1 0.508772 0.388586 0.5
240 1 0.508772 0.4291 0.5
241 1 0.543858 0.388586 0.5
242 1 0.526315 0.398714 0.5
243 1 0.526315 0.418971 0.5
244 1 0.543858 0.4291 0.5
245 1 0.578944 0.388586 0.5
246 1 0.561401 0.398714 0.5
247 1 0.561401 0.418971 0.5
248 1 0.578944 0.4291 0.5
249 1 0.614031 0.388586 0.5
250 1 0.596488 0.398714 0.5
251 1 0.596488 0.418971 0.5
252 1 0.614031 0.4291 0.5
305 1 0.508772 0.449357 0.5
308 1 0.508772 0.489871 0.5
309 1 0.543858 0.449357 0.5
310 1 0.526315 0.459486 0.5
311 1 0.526315 0.479743 0.5
312 1 0.543858 0.489871 0.5
313 1 0.578944 0.449357 0.5
314 1 0.561401 0.459486 0.5
315 1 0.561401 0.479743 0.5
316 1 0.578944 0.489871 0.5
317 1 0.614031 0.449357 0.5
318 1 0.596488 0.459486 0.5
319 1 0.596488 0.479743 0.5
320 1 0.614031 0.489871 0.5
253 1 0.649117 0.388586 0.5
254 1 0.631574 0.398714 0.5
255 1 0.631574 0.418971 0.5
256 1 0.649117 0.4291 0.5
257 1 0.684204 0.388586 0.5
258 1 0.66666 0.398714 0.5
259 1 0.66666 0.418971 0.5
260 1 0.684204 0.4291 0.5
261 1 0.71929 0.388586 0.5
262 1 0.701747 0.398714 0.5
263 1 0.701747 0.418971 0.5
264 1 0.71929 0.4291 0.5
266 1 0.736833 0.398714 0.5
267 1 0.736833 0.418971 0.5
321 1 0.649117 0.449357 0.5
322 1 0.631574 0.459486 0.5
323 1 0.631574 0.479743 0.5
324 1 0.649117 0.489871 0.5
325 1 0.684204 0.449357 0.5
326 1 0.66666 0.459486 0.5
327 1 0.66666 0.479743 0.5
328 1 0.684204 0.489871 0.5
329 1 0.71929 0.449357 0.5
330 1 0.701747 0.459486 0.5
331 1 0.701747 0.479743 0.5
332 1 0.71929 0.489871 0.5
334 1 0.736833 0.459486 0.5
335 1 0.736833 0.479743 0.5
265 1 0.754376 0.388586 0.5
268 1 0.754376 0.4291 0.5
269 1 0.789463 0.388586 0.5
270 1 0.77192 0.398714 0.5
271 1 0.77192 0.418971 0.5
272 1 0.789463 0.4291 0.5
333 1 0.754376 0.449357 0.5
336 1 0.754376 0.489871 0.5
337 1 0.789463 0.449357 0.5
338 1 0.77192 0.459486 0.5
339 1 0.77192 0.479743 0.5
340 1 0.789463 0.489871 0.5
341 1 0.22808 0.510129 0.5
342 1 0.210537 0.520257 0.5
343 1 0.210537 0.540514 0.5
344 1 0.22808 0.550643 0.5
346 1 0.245624 0.520257 0.5
347 1 0.245624 0.540514 0.5
409 1 0.22808 0.5709 0.5
410 1 0.210537 0.581029 0.5
411 1 0.210537 0.601286 0.5
412 1 0.22808 0.611414 0.5
414 1 0.245624 0.581029 0.5
415 1 0.245624 0.601286 0.5
345 1 0.263167 0.510129 0.5
348 1 0.263167 0.550643 0.5
349 1 0.298253 0.510129 0.5
350 1 0.28071 0.520257 0.5
351 1 0.28071 0.540514 0.5
352 1 0.298253 0.550643 0.5
353 1 0.33334 0.510129 0.5
354 1 0.315796 0.520257 0.5
355 1 0.315796 0.540514 0.5
356 1 0.33334 0.550643 0.5
357 1 0.368426 0.510129 0.5
358 1 0.350883 0.520257 0.5
359 1 0.350883 0.540514 0.5
360 1 0.368426 0.550643 0.5
413 1 0.263167 0.5709 0.5
416 1 0.263167 0.611414 0.5
417 1 0.298253 0.5709 0.5
418 1 0.28071 0.581029 0.5
419 1 0.28071 0.601286 0.5
420 1 0.298253 0.611414 0.5
421 1 0.33334 0.5709 0.5
422 1 0.315796 0.581029 0.5
423 1 0.315796 0.601286 0.5
424 1 0.33334 0.611414 0.5
425 1 0.368426 0.5709 0.5
426 1 0.350883 0.581029 0.5
427 1 0.350883 0.601286 0.5
428 1 0.368426 0.611414 0.5
361 1 0.403512 0.510129 0.5
362 1 0.385969 0.520257 0.5
363 1 0.385969 0.540514 0.5
364 1 0.403512 0.550643 0.5
365 1 0.438599 0.510129 0.5
366 1 0.421056 0.520257 0.5
367 1 0.421056 0.540514 0.5
368 1 0.438599 0.550643 0.5
369 1 0.473685 0.510129 0.5
370 1 0.456142 0.520257 0.5
371 1 0.456142 0.540514 0.5
372 1 0.473685 0.550643 0.5
374 1 0.491228 0.520257 0.5
375 1 0.491228 0.540514 0.5
429 1 0.403512 0.5709 0.5
430 1 0.385969 0.581029 0.5
431 1 0.385969 0.601286 0.5
432 1 0.403512 0.611414 0.5
433 1 0.438599 0.5709 0.5
434 1 0.421056 0.581029 0.5
435 1 0.421056 0.601286 0.5
436 1 0.438599 0.611414 0.5
437 1 0.473685 0.5709 0.5
438 1 0.456142 0.581029 0.5
439 1 0.456142 0.601286 0.5
440 1 0.473685 0.611414 0.5
442 1 0.491228 0.581029 0.5
443 1 0.491228 0.601286 0.5
373 1 0.508772 0.510129 0.5
376 1 0.508772 0.550643 0.5
377 1 0.543858 0.510129 0.5
378 1 0.526315 0.520257 0.5
379 1 0.526315 0.540514 0.5
380 1 0.543858 0.550643 0.5
381 1 0.578944 0.510129 0.5
382 1 0.561401 0.520257 0.5
383 1 0.561401 0.540514 0.5
384 1 0.578944 0.550643 0.5
385 1 0.614031 0.510129 0.5
386 1 0.596488 0.520257 0.5
387 1 0.596488 0.540514 0.5
388 1 0.614031 0.550643 0.5
441 1 0.508772 0.5709 0.5
444 1 0.508772 0.611414 0.5
445 1 0.543858 0.5709 0.5
446 1 0.526315 0.581029 0.5
447 1 0.526315 0.601286 0.5
448 1 0.543858 0.611414 0.5
449 1 0.578944 0.5709 0.5
450 1 0.561401 0.581029 0.5
451 1 0.561401 0.601286 0.5
452 1 0.578944 0.611414 0.5
453 1 0.614031 0.5709 0.5
454 1 0.596488 0.581029 0.5
455 1 0.596488 0.601286 0.5
456 1 0.614031 0.611414 0.5
389 1 0.649117 0.510129 0.5
390 1 0.631574 0.520257 0.5
391 1 0.631574 0.540514 0.5
392 1 0.649117 0.550643 0.5
393 1 0.684204 0.510129 0.5
394 1 0.66666 0.520257 0.5
395 1 0.66666 0.540514 0.5
396 1 0.684204 0.550643 0.5
397 1 0.71929 0.510129 0.5
398 1 0.701747 0.520257 0.5
399 1 0.701747 0.540514 0.5
400 1 0.71929 0.550643 0.5
402 1 0.736833 0.520257 0.5
403 1 0.736833 0.540514 0.5
457 1 0.649117 0.5709 0.5
458 1 0.631574 0.581029 0.5
459 1 0.631574 0.601286 0.5
460 1 0.649117 0.611414 0.5
461 1 0.684204 0.5709 0.5
462 1 0.66666 0.581029 0.5
463 1 0.66666 0.601286 0.5
464 1 0.684204 0.611414 0.5
465 1 0.71929 0.5709 0.5
466 1 0.701747 0.581029 0.5
467 1 0.701747 0.601286 0.5
468 1 0.71929 0.611414 0.5
470 1 0.736833 0.581029 0.5
471 1 0.736833 0.601286 0.5
401 1 0.754376 0.510129 0.5
404 1 0.754376 0.550643 0.5
405 1 0.789463 0.510129 0.5
406 1 0.77192 0.520257 0.5
407 1 0.77192 0.540514 0.5
408 1 0.789463 0.550643 0.5
469 1 0.754376 0.5709 0.5
472 1 0.754376 0.611414 0.5
473 1 0.789463 0.5709 0.5
474 1 0.77192 0.581029 0.5
475 1 0.77192 0.601286 0.5
476 1 0.789463 0.611414 0.5
477 1 0.22808 0.631671 0.5
478 1 0.210537 0.6418 0.5
479 1 0.210537 0.662057 0.5
480 1 0.22808 0.672186 0.5
482 1 0.245624 0.6418 0.5
483 1 0.245624 0.662057 0.5
545 1 0.22808 0.692443 0.5
546 1 0.210537 0.702571 0.5
547 1 0.210537 0.722829 0.5
548 1 0.22808 0.732957 0.5
550 1 0.245624 0.702571 0.5
551 1 0.245624 0.722829 0.5
481 1 0.263167 0.631671 0.5
484 1 0.263167 0.672186 0.5
485 1 0.298253 0.631671 0.5
486 1 0.28071 0.6418 0.5
487 1 0.28071 0.662057 0.5
488 1 0.298253 0.672186 0.5
489 1 0.33334 0.631671 0.5
490 1 0.315796 0.6418 0.5
491 1 0.315796 0.662057 0.5
492 1 0.33334 0.672186 0.5
493 1 0.368426 0.631671 0.5
494 1 0.350883 0.6418 0.5
495 1 0.350883 0.662057 0.5
496 1 0.368426 0.672186 0.5
549 1 0.263167 0.692443 0.5
552 1 0.263167 0.732957 0.5
553 1 0.298253 0.692443 0.5
554 1 0.28071 0.702571 0.5
555 1 0.28071 0.722829 0.5
556 1 0.298253 0.732957 0.5
557 1 0.33334 0.692443 0.5
558 1 0.315796 0.702571 0.5
559 1 0.315796 0.722829 0.5
560 1 0.33334 0.732957 0.5
561 1 0.368426 0.692443 0.5
562 1 0.350883 0.702571 0.5
563 1 0.350883 0.722829 0.5
564 1 0.368426 0.732957 0.5
497 1 0.403512 0.631671 0.5
498 1 0.385969 0.6418 0.5
499 1 0.385969 0.662057 0.5
500 1 0.403512 0.672186 0.5
501 1 0.438599 0.631671 0.5
502 1 0.421056 0.6418 0.5
503 1 0.421056 0.662057 0.5
504 1 0.438599 0.672186 0.5
505 1 0.473685 0.631671 0.5
506 1 0.456142 0.6418 0.5
507 1 0.456142 0.662057 0.5
508 1 0.473685 0.672186 0.5
510 1 0.491228 0.6418 0.5
511 1 0.491228 0.662057 0.5
565 1 0.403512 0.692443 0.5
566 1 0.385969 0.702571 0.5
567 1 0.385969 0.722829 0.5
568 1 0.403512 0.732957 0.5
569 1 0.438599 0.692443 0.5
570 1 0.421056 0.702571 0.5
571 1 0.421056 0.722829 0.5
572 1 0.438599 0.732957 0.5
573 1 0.473685 0.692443 0.5
574 1 0.456142 0.702571 0.5
575 1 0.456142 0.722829 0.5
576 1 0.473685 0.732957 0.5
578 1 0.491228 0.702571 0.5
579 1 0.491228 0.722829 0.5
509 1 0.508772 0.631671 0.5
512 1 0.508772 0.672186 0.5
513 1 0.543858 0.631671 0.5
514 1 0.526315 0.6418 0.5
515 1 0.526315 0.662057 0.5
516 1 0.543858 0.672186 0.5
517 1 0.578944 0.631671 0.5
518 1 0.561401 0.6418 0.5
519 1 0.561401 0.662057 0.5
520 1 0.578944 0.672186 0.5
521 1 0.614031 0.631671 0.5
522 1 0.596488 0.6418 0.5
523 1 0.596488 0.662057 0.5
524 1 0.614031 0.672186 0.5
577 1 0.508772 0.692443 0.5
580 1 0.508772 0.732957 0.5
581 1 0.543858 0.692443 0.5
582 1 0.526315 0.702571 0.5
583 1 0.526315 0.722829 0.5
584 1 0.543858 0.732957 0.5
585 1 0.578944 0.692443 0.5
586 1 0.561401 0.702571 0.5
587 1 0.561401 0.722829 0.5
588 1 0.578944 0.732957 0.5
589 1 0.614031 0.692443 0.5
590 1 0.596488 0.702571 0.5
591 1 0.596488 0.722829 0.5
592 1 0.614031 0.732957 0.5
525 1 0.649117 0.631671 0.5
526 1 0.631574 0.6418 0.5
527 1 0.631574 0.662057 0.5
528 1 0.649117 0.672186 0.5
529 1 0.684204 0.631671 0.5
530 1 0.66666 0.6418 0.5
531 1 0.66666 0.662057 0.5
532 1 0.684204 0.672186 0.5
533 1 0.71929 0.631671 0.5
534 1 0.701747 0.6418 0.5
535 1 0.701747 0.662057 0.5
536 1 0.71929 0.672186 0.5
538 1 0.736833 0.6418 0.5
539 1 0.736833 0.662057 0.5
593 1 0.649117 0.692443 0.5
594 1 0.631574 0.702571 0.5
595 1 0.631574 0.722829 0.5
596 1 0.649117 0.732957 0.5
597 1 0.684204 0.692443 0.5
598 1 0.66666 0.702571 0.5
599 1 0.66666 0.722829 0.5
600 1 0.684204 0.732957 0.5
601 1 0.71929 0.692443 0.5
602 1 0.701747 0.702571 0.5
603 1 0.701747 0.722829 0.5
604 1 0.71929 0.732957 0.5
606 1 0.736833 0.702571 0.5
607 1 0.736833 0.722829 0.5
537 1 0.754376 0.631671 0.5
540 1 0.754376 0.672186 0.5
541 1 0.789463 0.631671 0.5
542 1 0.77192 0.6418 0.5
543 1 0.77192 0.662057 0.5
544 1 0.789463 0.672186 0.5
605 1 0.754376 0.692443 0.5
608 1 0.754376 0.732957 0.5
609 1 0.789463 0.692443 0.5
610 1 0.77192 0.702571 0.5
611 1 0.77192 0.722829 0.5
612 1 0.789463 0.732957 0.5
613 1 0.22808 0.753214 0.5
614 1 0.210537 0.763343 0.5
615 1 0.210537 0.7836 0.5
616 1 0.22808 0.793729 0.5
618 1 0.245624 0.763343 0.5
619 1 0.245624 0.7836 0.5
617 1 0.263167 0.753214 0.5
620 1 0.263167 0.793729 0.5
621 1 0.298253 0.753214 0.5
622 1 0.28071 0.763343 0.5
623 1 0.28071 0.7836 0.5
624 1 0.298253 0.793729 0.5
625 1 0.33334 0.753214 0.5
626 1 0.315796 0.763343 0.5
627 1 0.315796 0.7836 0.5
628 1 0.33334 0.793729 0.5
629 1 0.368426 0.753214 0.5
630 1 0.350883 0.763343 0.5
631 1 0.350883 0.7836 0.5
632 1 0.368426 0.793729 0.5
633 1 0.403512 0.753214 0.5
634 1 0.385969 0.763343 0.5
635 1 0.385969 0.7836 0.5
636 1 0.403512 0.793729 0.5
637 1 0.438599 0.753214 0.5
638 1 0.421056 0.763343 0.5
639 1 0.421056 0.7836 0.5
640 1 0.438599 0.793729 0.5
641 1 0.473685 0.753214 0.5
642 1 0.456142 0.763343 0.5
643 1 0.456142 0.7836 0.5
644 1 0.473685 0.793729 0.5
646 1 0.491228 0.763343 0.5
647 1 0.491228 0.7836 0.5
645 1 0.508772 0.753214 0.5
648 1 0.508772 0.793729 0.5
649 1 0.543858 0.753214 0.5
650 1 0.526315 0.763343 0.5
651 1 0.526315 0.7836 0.5
652 1 0.543858 0.793729 0.5
653 1 0.578944 0.753214 0.5
654 1 0.561401 0.763343 0.5
655 1 0.561401 0.7836 0.5
656 1 0.578944 0.793729 0.5
657 1 0.614031 0.753214 0.5
658 1 0.596488 0.763343 0.5
659 1 0.596488 0.7836 0.5
660 1 0.614031 0.793729 0.5
661 1 0.649117 0.753214 0.5
662 1 0.631574 0.763343 0.5
663 1 0.631574 0.7836 0.5
664 1 0.649117 0.793729 0.5
665 1 0.684204 0.753214 0.5
666 1 0.66666 0.763343 0.5
667 1 0.66666 0.7836 0.5
668 1 0.684204 0.793729 0.5
669 1 0.71929 0.753214 0.5
670 1 0.701747 0.763343 0.5
671 1 0.701747 0.7836 0.5
672 1 0.71929 0.793729 0.5
674 1 0.736833 0.763343 0.5
675 1 0.736833 0.7836 0.5
673 1 0.754376 0.753214 0.5
676 1 0.754376 0.793729 0.5
677 1 0.789463 0.753214 0.5
678 1 0.77192 0.763343 0.5
679 1 0.77192 0.7836 0.5
680 1 0.789463 0.793729 0.5
ITEM: TIMESTEP
1000
ITEM: NUMBER OF ATOMS
680
ITEM: BOX BOUNDS ff ff ff
-3.5000000000000000e+01 3.5000000000000000e+01
-3.5000000000000000e+01 3.5000000000000000e+01
-1.5000000000000000e+01 1.5000000000000000e+01
ITEM: ATOMS id type xs ys zs
1 1 0.227801 0.210841 0.504928
2 1 0.210537 0.221679 0.5
3 1 0.210537 0.242081 0.5
4 1 0.228019 0.252014 0.502365
6 1 0.245385 0.221112 0.50867
7 1 0.245567 0.241608 0.506203
5 1 0.262431 0.210766 0.514556
8 1 0.26296 0.251592 0.50744
9 1 0.29731 0.211359 0.521783
10 1 0.279906 0.221061 0.518009
11 1 0.280183 0.241177 0.512959
12 1 0.29717 0.251685 0.51565
13 1 0.332322 0.211504 0.522432
14 1 0.314599 0.221081 0.520061
15 1 0.314376 0.241564 0.514597
16 1 0.332569 0.251525 0.514663
17 1 0.367282 0.210184 0.520519
18 1 0.350204 0.220949 0.519402
19 1 0.349724 0.240721 0.514661
20 1 0.367567 0.25086 0.512644
21 1 0.402152 0.211508 0.510664
22 1 0.384448 0.220102 0.515976
23 1 0.384633 0.240595 0.513677
24 1 0.402296 0.25072 0.514011
25 1 0.437469 0.211929 0.502492
26 1 0.419574 0.221075 0.509901
27 1 0.41978 0.241104 0.514046
28 1 0.437879 0.25041 0.515925
29 1 0.472777 0.211418 0.498859
30 1 0.455053 0.220855 0.503642
31 1 0.456069 0.24098 0.512678
32 1 0.473859 0.25127 0.512474
34 1 0.490328 0.221408 0.499997
35 1 0.491002 0.241632 0.504725
33 1 0.508173 0.211896 0.497973
36 1 0.508614 0.251206 0.507345
37 1 0.54395 0.210812 0.502025
38 1 0.526104 0.22138 0.502347
39 1 0.526144 0.241081 0.506109
40 1 0.543759 0.251102 0.511086
41 1 0.578838 0.211555 0.515418
42 1 0.561147 0.220524 0.509451
43 1 0.561139 0.241046 0.509072
44 1 0.578448 0.251173 0.51146
45 1 0.614093 0.21188 0.515276
46 1 0.596433 0.221658 0.514105
47 1 0.596108 0.241402 0.512441
48 1 0.613557 0.251787 0.51383
49 1 0.648714 0.211548 0.515776
50 1 0.63113 0.222112 0.516169
51 1 0.631682 0.242285 0.51508
52 1 0.649202 0.251684 0.517325
53 1 0.683864 0.211604 0.51332
54 1 0.665819 0.221613 0.513365
55 1 0.666512 0.241575 0.513382
56 1 0.683825 0.251649 0.507753
57 1 0.718546 0.211562 0.507639
58 1 0.700882 0.220897 0.509254
59 1 0.700903 0.241433 0.505802
60 1 0.718817 0.251209 0.504662
62 1 0.736162 0.221211 0.505739
63 1 0.73669 0.241212 0.504411
61 1 0.754167 0.211302 0.505162
64 1 0.754591 0.251118 0.503092
65 1 0.789463 0.210449 0.5
66 1 0.772511 0.221065 0.504934
67 1 0.772152 0.240867 0.503846
68 1 0.789463 0.251137 0.5
69 1 0.227685 0.271925 0.501279
70 1 0.210537 0.28196 0.5
71 1 0.210537 0.301722 0.5
72 1 0.227718 0.311927 0.497877
74 1 0.245284 0.281963 0.502272
75 1 0.245207 0.301744 0.499842
137 1 0.2284 0.332045 0.497831
138 1 0.210537 0.342764 0.5
139 1 0.210537 0.362274 0.5
140 1 0.228057 0.3716 0.500453
142 1 0.245727 0.341793 0.496766
143 1 0.245294 0.361347 0.499681
73 1 0.262732 0.271186 0.50193
76 1 0.262482 0.311057 0.496671
77 1 0.297306 0.271768 0.508112
78 1 0.279861 0.281445 0.502598
79 1 0.279965 0.301366 0.499374
80 1 0.297637 0.311377 0.499004
81 1 0.333107 0.271143 0.51031
82 1 0.315487 0.281556 0.507206
83 1 0.31626 0.301608 0.499679
84 1 0.333998 0.311486 0.500044
85 1 0.36836 0.271589 0.51213
86 1 0.350862 0.280989 0.509431
87 1 0.351136 0.300855 0.505551
88 1 0.36858 0.3109 0.50754
141 1 0.263244 0.33126 0.495888
144 1 0.262918 0.371297 0.499271
145 1 0.298291 0.33142 0.495975
146 1 0.280524 0.341216 0.495236
147 1 0.280511 0.362024 0.498423
148 1 0.297677 0.371402 0.498287
149 1 0.333955 0.331836 0.498582
150 1 0.315903 0.341409 0.498463
151 1 0.315929 0.361649 0.499118
152 1 0.334372 0.371432 0.499815
153 1 0.368897 0.331123 0.504796
154 1 0.35152 0.341484 0.501676
155 1 0.351683 0.36158 0.50324
156 1 0.369611 0.370753 0.505915
89 1 0.403173 0.270582 0.514675
90 1 0.385955 0.281359 0.511564
91 1 0.386055 0.301354 0.510217
92 1 0.403496 0.311672 0.510805
93 1 0.437471 0.270905 0.517813
94 1 0.420697 0.280142 0.518668
95 1 0.420389 0.300596 0.51596
96 1 0.437639 0.310846 0.512641
97 1 0.473228 0.271635 0.51227
98 1 0.455234 0.28133 0.516181
99 1 0.454598 0.300799 0.513052
100 1 0.472546 0.311 0.510787
102 1 0.490861 0.280979 0.51136
103 1 0.489822 0.300837 0.510388
157 1 0.403287 0.331923 0.507878
158 1 0.386034 0.341725 0.50829
159 1 0.38672 0.361035 0.506344
160 1 0.404623 0.37056 0.505212
161 1 0.438321 0.330534 0.508099
162 1 0.420815 0.340682 0.505497
163 1 0.421841 0.360438 0.504323
164 1 0.438555 0.370237 0.508757
165 1 0.473078 0.330812 0.508716
166 1 0.456197 0.340634 0.50711
167 1 0.456073 0.360536 0.508546
168 1 0.473855 0.370898 0.507882
170 1 0.489777 0.340537 0.508841
171 1 0.490494 0.36064 0.507206
101 1 0.508533 0.270656 0.510292
104 1 0.507527 0.310962 0.508757
105 1 0.543865 0.271135 0.512684
106 1 0.526053 0.280718 0.511571
107 1 0.525435 0.301071 0.509261
108 1 0.54292 0.311229 0.51001
109 1 0.578932 0.271416 0.513252
110 1 0.561821 0.280887 0.512448
111 1 0.561204 0.301305 0.511435
112 1 0.578333 0.311852 0.508275
113 1 0.613556 0.271532 0.513543
114 1 0.596033 0.281142 0.515323
115 1 0.595563 0.301943 0.513034
116 1 0.613143 0.310867 0.510578
169 1 0.50718 0.330728 0.509443
172 1 0.507555 0.370918 0.504264
173 1 0.54227 0.331143 0.508617
174 1 0.52484 0.34121 0.508709
175 1 0.524762 0.36111 0.505702
176 1 0.542224 0.370886 0.50207
177 1 0.577647 0.331469 0.50585
178 1 0.559641 0.341268 0.506121
179 1 0.559545 0.360956 0.50091
180 1 0.577644 0.370496 0.501855
181 1 0.612713 0.330372 0.504534
182 1 0.595561 0.340821 0.503883
183 1 0.594966 0.360582 0.502399
184 1 0.612753 0.370313 0.5011
117 1 0.648929 0.271221 0.510855
118 1 0.631572 0.281331 0.511735
119 1 0.631186 0.301366 0.509063
120 1 0.648266 0.311691 0.505454
121 1 0.683411 0.271342 0.506632
122 1 0.666101 0.281805 0.508996
123 1 0.666025 0.301558 0.503609
124 1 0.683661 0.310438 0.503906
125 1 0.719183 0.271218 0.504466
126 1 0.701567 0.281268 0.506238
127 1 0.701745 0.300732 0.504627
128 1 0.719101 0.310313 0.504702
130 1 0.737156 0.280755 0.502471
131 1 0.736974 0.301006 0.504281
185 1 0.647968 0.330845 0.505373
186 1 0.630404 0.340156 0.504736
187 1 0.630471 0.360172 0.504384
188 1 0.648383 0.37001 0.506882
189 1 0.683721 0.330457 0.503903
190 1 0.666422 0.340099 0.506106
191 1 0.666408 0.359974 0.509454
192 1 0.684048 0.370373 0.508954
193 1 0.718777 0.33029 0.503215
194 1 0.701357 0.340041 0.504655
195 1 0.701803 0.359754 0.505781
196 1 0.719534 0.370037 0.505566
198 1 0.736259 0.340204 0.501578
199 1 0.736444 0.360093 0.504833
129 1 0.754802 0.271227 0.503588
132 1 0.754241 0.310963 0.49775
133 1 0.789463 0.271071 0.5
134 1 0.77217 0.281147 0.500912
135 1 0.772576 0.300805 0.497345
136 1 0.789463 0.311163 0.5
197 1 0.754042 0.330899 0.498655
200 1 0.753662 0.370586 0.502112
201 1 0.789463 0.331331 0.5
202 1 0.771792 0.341336 0.500191
203 1 0.771581 0.361295 0.50202
204 1 0.789463 0.371024 0.5
205 1 0.228755 0.39174 0.501942
206 1 0.210537 0.400856 0.5
207 1 0.210537 0.421081 0.5
208 1 0.228016 0.430896 0.500559
210 1 0.246114 0.401565 0.501282
211 1 0.246027 0.421226 0.499983
273 1 0.228448 0.45089 0.501438
274 1 0.210537 0.459973 0.5
275 1 0.210537 0.479809 0.5
276 1 0.228142 0.489242 0.505393
278 1 0.246083 0.459779 0.505277
279 1 0.245829 0.479594 0.508072
209 1 0.262995 0.39158 0.502239
212 1 0.263859 0.430283 0.500327
213 1 0.297644 0.390918 0.499809
214 1 0.280615 0.400617 0.502203
215 1 0.280936 0.420269 0.498879
216 1 0.299119 0.429996 0.497344
217 1 0.333671 0.391177 0.499783
218 1 0.315821 0.400921 0.498226
219 1 0.316072 0.420762 0.49746
220 1 0.334197 0.430338 0.499485
221 1 0.368891 0.391131 0.500094
222 1 0.351046 0.400624 0.496455
223 1 0.351844 0.42033 0.498201
224 1 0.369334 0.43026 0.499769
277 1 0.263778 0.449793 0.503274
280 1 0.263688 0.489986 0.50895
281 1 0.299619 0.449998 0.499071
282 1 0.281524 0.459921 0.502045
283 1 0.281078 0.47983 0.506559
284 1 0.29854 0.489924 0.503904
285 1 0.334086 0.450446 0.502937
286 1 0.316729 0.459906 0.500645
287 1 0.31657 0.480077 0.5009
288 1 0.333588 0.490636 0.501005
289 1 0.368504 0.450173 0.501687
290 1 0.351072 0.460182 0.501002
291 1 0.350822 0.480407 0.500832
292 1 0.367921 0.490192 0.500351
225 1 0.403655 0.39058 0.504317
226 1 0.386526 0.400225 0.501949
227 1 0.386713 0.420551 0.499899
228 1 0.403829 0.430472 0.500356
229 1 0.438304 0.390495 0.507998
230 1 0.420992 0.400831 0.504848
231 1 0.42107 0.420622 0.501477
232 1 0.438432 0.431208 0.500629
233 1 0.473255 0.390988 0.50672
234 1 0.455658 0.401 0.506868
235 1 0.45568 0.421406 0.504355
236 1 0.473132 0.429747 0.504753
238 1 0.491079 0.400058 0.504717
239 1 0.490875 0.420278 0.502735
293 1 0.402876 0.450311 0.497625
294 1 0.386058 0.460498 0.500204
295 1 0.385645 0.48003 0.500834
296 1 0.402781 0.490982 0.499055
297 1 0.438184 0.451207 0.49583
298 1 0.420126 0.460435 0.494042
299 1 0.42046 0.480818 0.495508
300 1 0.438318 0.490094 0.492882
301 1 0.473254 0.449755 0.497907
302 1 0.455877 0.460934 0.493958
303 1 0.455829 0.480713 0.491483
304 1 0.4736 0.490234 0.493842
306 1 0.490442 0.459566 0.497144
307 1 0.490776 0.479641 0.495922
237 1 0.507824 0.390304 0.503344
240 1 0.508116 0.430226 0.500632
241 1 0.542829 0.390519 0.500976
242 1 0.525167 0.399894 0.499635
243 1 0.525612 0.419913 0.499695
244 1 0.543553 0.429854 0.498002
245 1 0.5781 0.390514 0.501145
246 1 0.560419 0.399949 0.499982
247 1 0.560961 0.419935 0.500534
248 1 0.57831 0.430116 0.499236
249 1 0.612912 0.390335 0.500505
250 1 0.595746 0.40065 0.502098
251 1 0.595895 0.420138 0.500592
252 1 0.613463 0.430262 0.502079
305 1 0.508634 0.449923 0.498229
308 1 0.508731 0.490139 0.497557
309 1 0.543472 0.450095 0.499062
310 1 0.526114 0.460331 0.500571
311 1 0.526257 0.480632 0.498269
312 1 0.544196 0.48993 0.498868
313 1 0.578626 0.449997 0.499486
314 1 0.560805 0.459419 0.499833
315 1 0.561511 0.47945 0.500858
316 1 0.57916 0.489897 0.498269
317 1 0.613493 0.449969 0.497723
318 1 0.596189 0.459655 0.500317
319 1 0.596237 0.479462 0.50073
320 1 0.614018 0.48923 0.499254
253 1 0.6478 0.389786 0.502961
254 1 0.630706 0.400006 0.500689
255 1 0.631356 0.419842 0.501852
256 1 0.649391 0.42919 0.501379
257 1 0.683895 0.38987 0.506763
258 1 0.665147 0.39954 0.503584
259 1 0.666233 0.419296 0.500919
260 1 0.683705 0.429472 0.503652
261 1 0.719277 0.389784 0.507974
262 1 0.701569 0.399711 0.507018
263 1 0.701501 0.419588 0.507797
264 1 0.719227 0.429659 0.509757
266 1 0.73646 0.400028 0.505256
267 1 0.736511 0.42024 0.507867
321 1 0.649096 0.449561 0.501437
322 1 0.631227 0.459306 0.499449
323 1 0.631414 0.479496 0.497033
324 1 0.648795 0.489698 0.49998
325 1 0.683543 0.449984 0.505254
326 1 0.665948 0.459844 0.501778
327 1 0.666431 0.479745 0.500293
328 1 0.684042 0.489349 0.503305
329 1 0.718703 0.449722 0.507043
330 1 0.70097 0.459698 0.506551
331 1 0.701329 0.479365 0.505157
332 1 0.718745 0.490087 0.504013
334 1 0.736435 0.45952 0.50684
335 1 0.736321 0.479947 0.503215
265 1 0.754326 0.390669 0.502208
268 1 0.753833 0.429934 0.508915
269 1 0.789463 0.390624 0.5
270 1 0.771804 0.400302 0.501987
271 1 0.771298 0.420165 0.50369
272 1 0.789463 0.429022 0.5
333 1 0.754183 0.449828 0.507162
336 1 0.754431 0.489373 0.502544
337 1 0.789463 0.449297 0.5
338 1 0.772225 0.459569 0.504169
339 1 0.772367 0.480015 0.501043
340 1 0.789463 0.489767 0.5