ITEM: TIMESTEP
0
ITEM: NUMBER OF ATOMS
1365
ITEM: BOX BOUNDS pp pp pp
-2.2244292254933814e+01 2.2244292254933814e+01
-8.7776352824922288e+00 8.7776352824922288e+00
-8.7776352824922288e+00 8.7776352824922288e+00
ITEM: ATOMS id type xs ys zs
1755 2 0.163147 0.328904 0.172985
1605 2 0.043035 0.331277 0.119001
1603 1 0.0453071 0.373939 0.0855387
1604 2 0.0392218 0.416893 0.115374
1182 2 0.143813 0.203854 0.198869
207 2 0.0155018 0.167662 0.432661
442 1 0.122895 0.131356 0.271044
443 2 0.116141 0.103586 0.227353
987 2 0.127472 0.277659 0.0685681
1173 2 0.0881691 0.172529 0.270239
1171 1 0.0682707 0.193237 0.2691
1172 2 0.0568828 0.16077 0.302054
1665 2 0.10922 0.365275 0.265351
757 1 0.0363531 0.0824658 0.388498
1136 2 0.137756 0.22486 0.492836
1664 2 0.0982888 0.286326 0.28624
1663 1 0.106873 0.331474 0.307719
1180 1 0.147097 0.228812 0.151111
904 1 0.0283177 0.380394 0.470675
1092 2 0.070924 0.383598 0.323505
905 2 0.0343971 0.336232 0.498699
1091 2 0.042911 0.394051 0.371335
1090 1 0.051884 0.408984 0.324082
1758 2 0.030287 0.188415 0.13767
1756 1 0.0366771 0.237685 0.154498
1757 2 0.0498782 0.227527 0.196338
1912 1 0.0376922 0.495883 0.191712
1531 1 0.0416664 0.079083 0.112011
986 2 0.100314 0.326768 0.051586
1914 2 0.0362253 0.468905 0.238949
1170 2 0.138403 0.312109 0.388458
1168 1 0.154983 0.307397 0.422885
1386 2 0.150336 0.38164 0.484541
346 1 0.0975427 0.410526 0.177701
348 2 0.0763718 0.406237 0.168977
347 2 0.103249 0.456243 0.151743
985 1 0.10988 0.280073 0.0372703
444 2 0.128693 0.0928974 0.306793
1919 2 0.11541 0.0578196 0.413378
1533 2 0.0618957 0.0961919 0.119234
758 2 0.030776 0.031634 0.402258
759 2 0.053546 0.0933823 0.419408
1516 1 0.0927553 0.101824 0.485953
1918 1 0.129105 0.0298115 0.38201
825 2 0.160309 0.0669633 0.442414
526 1 0.0988436 0.0309618 0.15976
528 2 0.0790692 0.020738 0.178659
205 1 0.00572122 0.198042 0.470551
1532 2 0.0415485 0.0575594 0.0619153
1761 2 0.056558 0.447413 0.00292111
2154 2 0.0440364 0.298791 0.00201489
1174 1 0.090538 0.482661 0.472919
1753 1 0.181221 0.358277 0.176513
1754 2 0.184464 0.364404 0.230065
1169 2 0.172262 0.319564 0.392759
1181 2 0.16841 0.226861 0.143898
1512 2 0.206561 0.0297848 0.369251
1510 1 0.218101 0.00813453 0.328642
208 1 0.183969 0.458631 0.0547114
192 2 0.252792 0.306313 0.211308
607 1 0.199634 0.357829 0.325311
2165 2 0.278061 0.300342 0.0963762
2164 1 0.294611 0.308157 0.0624244
2166 2 0.300662 0.359726 0.0712826
243 2 0.228877 0.21837 0.119506
241 1 0.213776 0.179712 0.11578
242 2 0.219049 0.143492 0.154283
1412 2 0.244271 0.162899 0.276387
1478 2 0.244394 0.180881 0.43005
1411 1 0.242631 0.120949 0.241805
1413 2 0.262835 0.103286 0.235526
191 2 0.22292 0.324171 0.174062
1477 1 0.262487 0.175079 0.401118
190 1 0.24336 0.311591 0.162587
1479 2 0.277654 0.19906 0.431458
1511 2 0.227374 0.0509415 0.304388
1204 1 0.258048 0.308055 0.329317
1206 2 0.259428 0.261053 0.35673
1765 1 0.31716 0.347007 0.361686
974 2 0.200973 0.136699 0.026751
609 2 0.22033 0.343157 0.327958
1885 1 0.296368 0.0285682 0.239257
837 2 0.29277 0.00711103 0.133178
823 1 0.18172 0.0683985 0.447591
836 2 0.30064 0.0333788 0.0534983
1205 2 0.277464 0.330863 0.334956
210 2 0.186361 0.419742 0.0924452
887 2 0.331143 0.264508 0.0385166
608 2 0.200034 0.412342 0.325804
605 2 0.221892 0.275669 0.498733
604 1 0.214584 0.240585 0.461328
1767 2 0.317165 0.322195 0.410238
606 2 0.193602 0.251892 0.457121
1766 2 0.327871 0.312921 0.328908
2114 2 0.3046 0.4749 0.191592
1243 1 0.316242 0.0534007 0.418294
1244 2 0.312263 0.00782071 0.39012
1887 2 0.315567 0.0526752 0.234314
1634 2 0.184943 0.0364822 0.16781
209 2 0.195729 0.441412 0.0124238
1245 2 0.301431 0.0888707 0.4008
2113 1 0.313387 0.470832 0.141988
824 2 0.185056 0.0898215 0.497013
628 1 0.298214 0.240759 0.494604
1195 1 0.341623 0.492661 0.318984
1196 2 0.33861 0.443146 0.3405
867 2 0.348849 0.12824 0.030354
886 1 0.346037 0.228414 0.0228478
865 1 0.346344 0.0757211 0.0435609
1427 2 0.354799 0.453265 0.115274
1513 1 0.357704 0.24554 0.27965
1815 2 0.38927 0.346832 0.093317
1514 2 0.366686 0.227382 0.325749
1426 1 0.373667 0.461421 0.0903736
1428 2 0.383624 0.498726 0.12111
1515 2 0.348986 0.201177 0.256916
735 2 0.445545 0.213822 0.168114
734 2 0.470849 0.235094 0.11452
733 1 0.461667 0.19234 0.139091
249 2 0.406944 0.264373 0.16419
247 1 0.412945 0.259299 0.216305
248 2 0.394491 0.260069 0.244329
212 2 0.477488 0.0859501 0.286802
213 2 0.463626 0.142017 0.231492
719 2 0.471454 0.370606 0.129313
718 1 0.460204 0.416868 0.13378
211 1 0.462716 0.125448 0.283387
720 2 0.45137 0.41439 0.183435
603 2 0.469258 0.136849 0.0555862
601 1 0.476093 0.105824 0.0142292
602 2 0.477608 0.0557232 0.0353989
1763 2 0.435897 0.396157 0.327128
1762 1 0.447085 0.38151 0.282918
1764 2 0.437653 0.335529 0.265964
1615 1 0.409337 0.0248148 0.242895
379 1 0.352764 0.10003 0.200348
380 2 0.370944 0.0758548 0.216657
381 2 0.3523 0.0922242 0.146398
1997 2 0.482685 0.333434 0.32571
1616 2 0.429131 0.0444484 0.251342
2141 2 0.464124 0.206672 0.37239
2140 1 0.454424 0.21396 0.42051
2142 2 0.454964 0.16484 0.444139
866 2 0.360026 0.0491343 0.0109431
4 6 0.427419 0.453908 0.411468
1737 2 0.384659 0.0339929 0.435015
1081 1 0.389206 0.219277 0.407028
1082 2 0.409948 0.211046 0.418958
1083 2 0.380827 0.240326 0.452624
3 5 0.391638 0.401231 0.428939
1 3 0.411073 0.439243 0.458478
1736 2 0.392029 0.101918 0.385276
1735 1 0.398945 0.0519909 0.398431
888 2 0.364802 0.253092 0.0329813
1813 1 0.39987 0.303233 0.0745934
7 5 0.438319 0.346076 0.487399
1852 1 0.49854 0.304768 0.0899523
533 2 0.498011 0.466994 0.135372
5 7 0.445871 0.462036 0.436556
1617 2 0.402124 0.0121323 0.292675
520 1 0.447815 0.0772553 0.486546
2 5 0.403234 0.498854 0.485335
521 2 0.429888 0.0758323 0.456429
1814 2 0.41409 0.323585 0.0390949
1625 2 0.452064 0.41404 0.0153038
104 2 0.527233 0.060173 0.224151
103 1 0.537424 0.0902038 0.186681
1853 2 0.504718 0.316981 0.039171
1996 1 0.502485 0.31273 0.330855
105 2 0.530752 0.141196 0.196
1998 2 0.513952 0.352829 0.353671
194 2 0.520646 0.204865 0.355791
193 1 0.53865 0.17518 0.358988
195 2 0.540764 0.164024 0.41209
1854 2 0.515703 0.280569 0.112219
2120 2 0.557756 0.0299677 0.112351
1104 2 0.564804 0.275337 0.204986
1102 1 0.544699 0.277654 0.185702
1103 2 0.533762 0.305368 0.223606
692 2 0.598871 0.184085 0.152029
691 1 0.607476 0.198136 0.199987
693 2 0.6036 0.155477 0.232494
2078 2 0.616292 0.0981544 0.409561
1078 1 0.59397 0.189227 0.0456349
1079 2 0.587589 0.15548 0.00597939
1080 2 0.597894 0.236426 0.0202101
1471 1 0.633359 0.333398 0.254506
1473 2 0.626964 0.284192 0.237504
2132 2 0.544349 0.463557 0.0375493
1472 2 0.645393 0.323281 0.298559
2017 1 0.588955 0.109597 0.314644
2019 2 0.569819 0.132802 0.323745
2018 2 0.584498 0.0567654 0.307276
1642 1 0.650282 0.123254 0.100649
1644 2 0.662449 0.16094 0.076114
2121 2 0.562317 0.0165503 0.0279532
44 4 0.541081 0.406796 0.411559
41 3 0.529343 0.456814 0.441931
1265 2 0.538841 0.0388293 0.449829
49 5 0.587995 0.347994 0.373317
1994 2 0.665403 0.106102 0.197198
1643 2 0.630298 0.143312 0.0981933
43 5 0.505699 0.445448 0.463447
791 2 0.601701 0.435924 0.349313
1562 2 0.553453 0.487471 0.175686
792 2 0.617277 0.427942 0.273058
790 1 0.603518 0.459673 0.300448
1548 2 0.631303 0.477795 0.0819454
47 5 0.542232 0.31185 0.420123
45 3 0.552479 0.361947 0.450517
48 3 0.58597 0.361677 0.438507
51 4 0.597809 0.418378 0.444922
50 5 0.593115 0.305844 0.46834
296 2 0.653798 0.0365884 0.0380022
1547 2 0.656506 0.454135 0.134837
1546 1 0.650576 0.453563 0.0824271
42 5 0.543079 0.486416 0.488931
349 1 0.503619 0.0186193 0.298695
350 2 0.515807 0.0222503 0.343481
1264 1 0.542402 3.7601e-05 0.41259
1691 2 0.586723 0.498781 0.014977
2077 1 0.624657 0.0780574 0.4556
2079 2 0.645939 0.0823784 0.448843
52 3 0.617697 0.418083 0.489059
54 5 0.638549 0.393193 0.460496
1636 1 0.674148 0.284087 0.389635
1995 2 0.674519 0.0416201 0.249591
1993 1 0.679232 0.093299 0.236957
1866 2 0.682178 0.447183 0.261565
1864 1 0.671235 0.487948 0.238279
816 2 0.694477 0.119712 0.44084
814 1 0.68274 0.101343 0.482684
1418 2 0.746345 0.385396 0.118563
1417 1 0.751861 0.358372 0.16381
1678 1 0.803362 0.254011 0.235336
439 1 0.762691 0.318392 0.406075
441 2 0.748328 0.354117 0.386794
1679 2 0.805925 0.239663 0.183135
1680 2 0.799994 0.30784 0.233758
1821 2 0.763296 0.113458 0.246736
1315 1 0.707894 0.405237 0.346705
1419 2 0.748027 0.30603 0.152024
1226 2 0.831213 0.184148 0.0896936
2043 2 0.817437 0.23915 0.380536
1819 1 0.772072 0.133617 0.292254
1820 2 0.780093 0.181949 0.277292
1637 2 0.684605 0.238473 0.375847
1225 1 0.822746 0.234019 0.0846431
491 2 0.735521 0.159784 0.114378
1822 1 0.775009 0.464047 0.275189
1823 2 0.784867 0.488351 0.233258
1824 2 0.760748 0.430466 0.25197
1744 1 0.714972 0.155519 0.351557
1746 2 0.706478 0.127298 0.310167
1745 2 0.736186 0.154116 0.342564
179 2 0.792683 0.490201 0.102819
1638 2 0.674014 0.28375 0.444158
1317 2 0.695866 0.361989 0.359872
1316 2 0.702478 0.443281 0.383272
483 2 0.805788 0.440917 0.323615
1896 2 0.785238 0.118802 0.388198
492 2 0.717709 0.215473 0.066444
481 1 0.820417 0.410432 0.349485
490 1 0.737069 0.207874 0.0889824
278 2 0.721129 0.0265995 0.157511
277 1 0.741056 0.0459654 0.164416
279 2 0.753606 0.00167879 0.163974
440 2 0.774676 0.347289 0.440938
1895 2 0.786606 0.06808 0.457854
1894 1 0.790415 0.119068 0.441121
1227 2 0.81094 0.231483 0.0391313
1685 2 0.830616 0.0802018 0.434715
386 2 0.812846 0.0611989 0.086267
385 1 0.832592 0.0676943 0.106925
879 2 0.824518 0.473037 0.445531
1236 2 0.66722 0.380208 0.00120266
911 2 0.742751 0.236173 0.476907
2003 2 0.779047 0.0509743 0.00360561
1377 2 0.720994 0.451006 0.0172842
1375 1 0.733874 0.407413 0.014624
176 2 0.996144 0.266941 0.193481
993 2 0.966363 0.00624028 0.142542
2041 1 0.834436 0.249406 0.412347
2042 2 0.838872 0.302036 0.403588
1287 2 0.841769 0.325828 0.0751954
387 2 0.835843 0.0230296 0.137094
617 2 0.839832 0.208828 0.25202
618 2 0.853972 0.177271 0.323831
616 1 0.855485 0.175734 0.269463
482 2 0.839297 0.427011 0.329269
653 2 0.962682 0.379534 0.418967
652 1 0.96738 0.376196 0.472072
93 2 0.95649 0.0890694 0.238086
640 1 0.961573 0.351137 0.0701783
641 2 0.947187 0.381555 0.0969851
945 2 0.965372 0.341537 0.285377
943 1 0.954556 0.373943 0.319605
155 2 0.910529 0.324625 0.298154
156 2 0.89679 0.258697 0.25482
1285 1 0.858331 0.360461 0.0786495
154 1 0.895441 0.312746 0.261142
1286 2 0.875061 0.332598 0.0586687
2021 2 0.932164 0.130665 0.410841
2020 1 0.94606 0.168092 0.429061
1677 2 0.902034 0.231816 0.0897878
1675 1 0.904626 0.258048 0.0424409
1676 2 0.922372 0.288046 0.0495568
177 2 0.970991 0.315472 0.161575
175 1 0.977007 0.288296 0.206318
1771 1 0.896807 0.177608 0.164467
1772 2 0.877938 0.172784 0.190221
1811 2 0.946805 0.178491 0.321203
1810 1 0.942755 0.180271 0.267682
1812 2 0.955392 0.220224 0.248943
944 2 0.962578 0.423717 0.310536
2022 2 0.935324 0.194546 0.468215
1108 1 0.877928 0.45718 0.207495
1109 2 0.868627 0.448875 0.159035
1773 2 0.911426 0.162379 0.20146
1110 2 0.883635 0.407391 0.224374
140 2 0.889769 0.0607032 0.0881634
141 2 0.905677 0.07986 0.0143763
139 1 0.904419 0.0416021 0.0530951
325 1 0.934098 0.478645 0.14519
668 2 0.917334 0.438535 0.359403
642 2 0.971956 0.386476 0.0380562
326 2 0.913104 0.488308 0.152202
654 2 0.988884 0.376133 0.473886
130 1 0.911806 0.0501138 0.383147
992 2 0.941352 0.0113995 0.0842951
131 2 0.915968 0.0213363 0.428242
1899 2 0.907156 0.0368718 0.209667
132 2 0.891142 0.064492 0.388042
846 2 0.889056 0.437363 0.47441
667 1 0.903032 0.47012 0.38513
91 1 0.964214 0.0386133 0.231454
92 2 0.969949 0.0228872 0.281599
1686 2 0.852376 0.0304255 0.478511
206 2 0.984908 0.184905 0.466254
74 2 0.855734 0.25832 0.493826
236 2 0.849622 0.436099 0.0187308
235 1 0.843578 0.485503 0.00148061
1497 2 0.97549 0.0661189 0.0279866
1684 1 0.850762 0.0610865 0.43361
1913 2 0.0272114 0.542671 0.200564
1121 2 0.0890641 0.924311 0.400242
1122 2 0.10686 0.90372 0.470803
1120 1 0.0867369 0.909187 0.452294
2082 2 0.119647 0.952191 0.297859
1355 2 0.0550426 0.508419 0.336257
1683 2 0.0155611 0.898838 0.482905
2080 1 0.108189 0.906124 0.295108
487 1 0.0480468 0.961461 0.233732
649 1 0.00508339 0.631563 0.206015
1707 2 0.0121684 0.827449 0.111228
489 2 0.0355585 0.931085 0.266115
399 2 0.0410391 0.677491 0.348743
397 1 0.0216399 0.70107 0.348356
402 2 0.0755171 0.668173 0.213026
400 1 0.0906488 0.658946 0.250674
401 2 0.0820969 0.62096 0.283237
1733 2 0.0561427 0.642247 0.0505646
1734 2 0.0372985 0.625832 0.120469
1732 1 0.0549713 0.652261 0.10408
1354 1 0.0614559 0.555412 0.358628
1356 2 0.0732206 0.540433 0.401752
306 2 0.119427 0.524003 0.424421
1614 2 0.104648 0.721981 0.317164
1549 1 0.0136453 0.783716 0.473495
224 2 0.144987 0.649864 0.24854
1612 1 0.111387 0.754069 0.357805
1551 2 0.0179277 0.749475 0.432474
1613 2 0.1084 0.804789 0.339282
2081 2 0.0900776 0.920411 0.269374
696 2 0.0587754 0.764101 0.107214
488 2 0.0344512 0.983373 0.197596
694 1 0.0659459 0.804381 0.0752715
695 2 0.0583098 0.792337 0.0257395
527 2 0.101304 0.996322 0.118116
1591 1 0.0980339 0.537775 0.0986874
1593 2 0.0865765 0.581811 0.112499
304 1 0.132216 0.564211 0.406932
305 2 0.127947 0.605973 0.440277
940 1 0.161989 0.866024 0.0901891
1592 2 0.118491 0.554614 0.100018
1159 1 0.142714 0.696585 0.485428
1991 2 0.0770772 0.767692 0.484432
1461 2 0.124454 0.897693 0.060935
1459 1 0.104971 0.918236 0.0503037
1460 2 0.0912527 0.880361 0.068466
1160 2 0.139524 0.716731 0.43541
1920 2 0.130446 0.980837 0.405736
1672 1 0.153773 0.592365 0.0768745
1674 2 0.157473 0.613023 0.126456
223 1 0.163379 0.630545 0.227868
1817 2 0.163578 0.870269 0.426735
1161 2 0.164102 0.692984 0.490119
2053 1 0.0070447 0.847035 0.281954
398 2 0.0102969 0.672154 0.312155
2054 2 0.0124476 0.801485 0.308612
1760 2 0.0793232 0.509911 0.0171478
1681 1 0.0266098 0.944523 0.472815
1682 2 0.0471618 0.9285 0.47092
1816 1 0.151446 0.898302 0.461975
1197 2 0.323162 0.51903 0.328426
1886 2 0.300812 0.978915 0.258767
2115 2 0.315654 0.522425 0.125311
1673 2 0.167051 0.549612 0.073291
941 2 0.167254 0.907842 0.122534
1633 1 0.194708 0.989426 0.179907
942 2 0.173868 0.873305 0.0453139
493 1 0.242928 0.597469 0.243828
495 2 0.228697 0.612869 0.281712
835 1 0.29098 0.992969 0.0807144
494 2 0.258737 0.573531 0.272022
294 2 0.21499 0.536457 0.0975996
1586 2 0.267522 0.886735 0.370504
293 2 0.23793 0.575141 0.148202
1585 1 0.246799 0.890007 0.384792
1635 2 0.204784 0.999144 0.227093
1622 2 0.174615 0.796334 0.166948
1623 2 0.178396 0.724607 0.213854
658 1 0.288237 0.559446 0.315382
1769 2 0.290295 0.723951 0.451888
660 2 0.298387 0.605219 0.300677
727 1 0.185092 0.524691 0.327128
729 2 0.167162 0.517982 0.35651
225 2 0.169045 0.590328 0.261771
728 2 0.195386 0.565897 0.351511
1587 2 0.239139 0.932035 0.355986
818 2 0.233503 0.667795 0.055011
755 2 0.252729 0.973622 0.0416978
754 1 0.233128 0.965507 0.0207256
1621 1 0.185801 0.775534 0.208622
1325 2 0.300658 0.654187 0.113188
1326 2 0.315498 0.638356 0.0372161
1324 1 0.315358 0.622316 0.089327
427 1 0.275579 0.713959 0.16415
429 2 0.269781 0.766123 0.158156
1447 1 0.205831 0.668413 0.353729
1448 2 0.20071 0.671296 0.406608
1449 2 0.205389 0.720144 0.336537
1619 2 0.185526 0.806189 0.299232
1620 2 0.207303 0.835712 0.358557
1618 1 0.18657 0.823285 0.35094
1770 2 0.310232 0.744412 0.385065
1768 1 0.301516 0.7652 0.430374
428 2 0.262472 0.694766 0.202897
1229 2 0.232819 0.883627 0.0910947
1228 1 0.237414 0.840104 0.121804
1230 2 0.219507 0.831221 0.150695
819 2 0.228358 0.752542 0.0458072
1152 2 0.311714 0.821354 0.045157
1151 2 0.315612 0.899294 0.0807169
1150 1 0.326658 0.858468 0.0578562
817 1 0.232745 0.7073 0.0174787
1396 1 0.26307 0.617854 0.444166
292 1 0.232048 0.569652 0.0960426
659 2 0.279106 0.571543 0.363248
1787 2 0.325352 0.742051 0.276685
746 2 0.317485 0.881194 0.396119
747 2 0.321905 0.886203 0.310761
745 1 0.313701 0.913415 0.353191
1786 1 0.322991 0.693989 0.301729
2156 2 0.326982 0.517599 0.448541
2155 1 0.329484 0.547848 0.49346
1653 2 0.319064 0.990921 0.497692
1572 2 0.252769 0.558081 0.00843041
1397 2 0.270156 0.585744 0.484407
1398 2 0.241756 0.619843 0.451336
1208 2 0.252253 0.907963 0.479118
2105 2 0.446671 0.582158 0.0789456
36 5 0.474068 0.511672 0.283742
534 2 0.496183 0.536125 0.0840295
2106 2 0.463768 0.602671 0.00726092
2104 1 0.466508 0.59205 0.0602888
164 2 0.379496 0.531758 0.307489
165 2 0.412784 0.515279 0.314478
1327 1 0.411836 0.873574 0.3951
1788 2 0.34282 0.68088 0.318342
1629 2 0.404288 0.607901 0.174588
1627 1 0.40502 0.600854 0.120552
32 5 0.459036 0.640804 0.293047
1628 2 0.38997 0.634587 0.101048
163 1 0.398792 0.549527 0.29118
1703 2 0.353016 0.642507 0.495178
1952 2 0.370972 0.743335 0.0329503
1951 1 0.38348 0.737406 0.0769178
1953 2 0.381211 0.784191 0.104325
1085 2 0.39847 0.956205 0.151574
1084 1 0.406259 0.94088 0.103113
1358 2 0.417754 0.737072 0.0237531
1359 2 0.450403 0.757383 0.0371093
28 5 0.450934 0.718024 0.401448
31 3 0.477014 0.620625 0.338194
27 3 0.464735 0.675144 0.433095
29 5 0.487718 0.698147 0.441674
30 4 0.464936 0.616974 0.397324
261 2 0.361295 0.823993 0.24317
1482 2 0.394669 0.647928 0.328353
1480 1 0.381492 0.690404 0.335669
1481 2 0.381309 0.698296 0.389618
332 2 0.408075 0.773955 0.262605
331 1 0.407295 0.82686 0.24956
333 2 0.406445 0.852696 0.297527
259 1 0.340734 0.838038 0.23539
260 2 0.339516 0.850274 0.182346
1962 2 0.479979 0.686357 0.109782
1960 1 0.49172 0.730468 0.121695
1520 2 0.470541 0.80939 0.143144
1519 1 0.456826 0.851279 0.146322
1521 2 0.443148 0.837299 0.186022
1329 2 0.430482 0.893654 0.413458
1828 1 0.490652 0.973504 0.0863069
1829 2 0.481897 0.930237 0.110979
1086 2 0.423484 0.910494 0.115122
1328 2 0.399943 0.866362 0.439962
34 3 0.491326 0.545615 0.308497
33 5 0.497009 0.664438 0.333724
2035 1 0.462132 0.936914 0.439544
2036 2 0.464058 0.988528 0.456431
2037 2 0.476478 0.932241 0.399177
1661 2 0.401742 0.986499 0.0129548
1704 2 0.336609 0.717869 0.489851
1702 1 0.356349 0.696218 0.491086
462 2 0.491823 0.911194 0.495698
2119 1 0.563633 0.99177 0.0764069
875 2 0.603166 0.955791 0.0967051
40 5 0.543966 0.514824 0.338359
876 2 0.636766 0.944357 0.104144
532 1 0.510075 0.506187 0.112963
1561 1 0.566893 0.526121 0.193549
1563 2 0.577783 0.502337 0.234114
464 2 0.605403 0.974602 0.457283
295 1 0.655387 0.986171 0.0176337
351 2 0.506803 0.96782 0.280605
37 4 0.501784 0.503843 0.355947
38 3 0.524548 0.521004 0.383528
874 1 0.618113 0.933814 0.129188
1013 2 0.632289 0.606887 0.213211
1830 2 0.508909 0.982617 0.113681
35 5 0.509207 0.561506 0.260583
1941 2 0.600562 0.92329 0.245182
1961 2 0.512056 0.712666 0.121468
1266 2 0.557428 0.968122 0.435049
1939 1 0.587164 0.940655 0.284151
465 2 0.596043 0.922758 0.392581
1692 2 0.586012 0.533026 0.0941018
1690 1 0.597209 0.533514 0.0475435
463 1 0.59385 0.929923 0.446347
1940 2 0.567518 0.929911 0.264688
761 2 0.629515 0.860095 0.190191
760 1 0.638406 0.822458 0.222576
363 2 0.528696 0.851955 0.300171
361 1 0.527026 0.884622 0.25672
362 2 0.531916 0.852653 0.214324
1975 1 0.642594 0.710421 0.392685
1976 2 0.634956 0.68005 0.351747
390 2 0.664226 0.715618 0.0928389
388 1 0.651095 0.691748 0.128836
389 2 0.648318 0.729177 0.167856
1463 2 0.544505 0.773962 0.408421
1462 1 0.53968 0.775203 0.355299
1464 2 0.555927 0.748827 0.331175
624 2 0.558386 0.69616 0.172723
563 2 0.570301 0.817606 0.0806318
623 2 0.54878 0.614481 0.159581
622 1 0.547079 0.664654 0.138675
564 2 0.554277 0.892539 0.0937738
1730 2 0.596337 0.768604 0.24547
1729 1 0.581118 0.730726 0.25259
1731 2 0.59178 0.683374 0.251734
1343 2 0.53226 0.618545 0.00634468
562 1 0.553745 0.839782 0.107479
39 5 0.527076 0.576987 0.411483
1977 2 0.659402 0.736806 0.371178
1012 1 0.628253 0.607852 0.26676
1124 2 0.616288 0.71521 0.0584557
1739 2 0.51402 0.778731 0.00877484
1123 1 0.599319 0.741253 0.0373482
1125 2 0.584805 0.701984 0.0285175
1932 2 0.662545 0.691635 0.487552
1098 2 0.593028 0.826378 0.482472
1097 2 0.60492 0.751083 0.453161
1096 1 0.588543 0.773075 0.480853
1014 2 0.620347 0.558346 0.277745
762 2 0.653418 0.849599 0.250668
57 5 0.619987 0.536745 0.459436
1865 2 0.668578 0.524461 0.278209
178 1 0.795831 0.534057 0.134219
883 1 0.711898 0.938574 0.00103227
884 2 0.692075 0.958002 0.00951114
2108 2 0.766006 0.53512 0.343813
2109 2 0.736208 0.547927 0.383441
877 1 0.832994 0.515215 0.472597
1395 2 0.692047 0.921525 0.316662
1393 1 0.682651 0.926576 0.267872
2074 1 0.729688 0.624845 0.165345
2075 2 0.716141 0.591098 0.19095
2076 2 0.72629 0.615464 0.112328
857 2 0.696802 0.756475 0.259875
856 1 0.692524 0.746061 0.312286
1394 2 0.69854 0.918197 0.232076
858 2 0.711656 0.734057 0.334152
2107 1 0.754938 0.572285 0.372187
1542 2 0.767009 0.730985 0.387472
1541 2 0.752164 0.668 0.342146
180 2 0.781884 0.57102 0.11531
1336 1 0.723275 0.906805 0.399671
1337 2 0.742082 0.929069 0.385322
1338 2 0.725976 0.853347 0.391403
1540 1 0.755088 0.722013 0.342977
1373 2 0.729444 0.845298 0.167229
1374 2 0.724554 0.895138 0.097953
1667 2 0.742448 0.719648 0.169223
2010 2 0.824992 0.902728 0.241221
1372 1 0.717555 0.886857 0.148843
1668 2 0.75468 0.74126 0.24674
1666 1 0.746113 0.762598 0.201504
2060 2 0.762515 0.759468 0.0883895
284 2 0.802489 0.914326 0.121776
285 2 0.796633 0.876074 0.0459255
283 1 0.78948 0.915966 0.0783762
1904 2 0.780194 0.930146 0.467428
1179 2 0.825813 0.570196 0.20118
1457 2 0.814726 0.773348 0.0605337
1903 1 0.779566 0.963872 0.424615
2059 1 0.770501 0.747201 0.0392682
2061 2 0.766558 0.693935 0.0332801
958 1 0.831131 0.916425 0.359409
1905 2 0.794735 0.944968 0.390883
1126 1 0.698293 0.539826 0.0218001
1863 2 0.707799 0.829441 0.493187
1857 2 0.807792 0.68318 0.453181
1843 1 0.69754 0.530321 0.432973
1778 2 0.832543 0.630034 0.336441
1127 2 0.684444 0.51081 0.0517879
2039 2 0.689326 0.835825 0.00296939
507 2 0.73977 0.575272 0.000233887
505 1 0.759615 0.595207 0.00703804
1484 2 0.70945 0.945354 0.486868
1844 2 0.702454 0.516933 0.484342
1845 2 0.690621 0.581853 0.436144
1855 1 0.803022 0.710436 0.498831
327 2 0.939519 0.508646 0.101782
991 1 0.961679 0.99467 0.0905983
921 2 0.958295 0.982697 0.384392
1705 1 0.99642 0.799677 0.135904
1706 2 0.996672 0.817653 0.187376
920 2 0.987932 0.98572 0.426661
2009 2 0.853747 0.935262 0.208538
2008 1 0.834626 0.914911 0.194015
1068 2 0.957407 0.508269 0.230801
1836 2 0.883797 0.952089 0.00226629
1066 1 0.969783 0.513223 0.275126
1067 2 0.957536 0.540267 0.31088
650 2 0.996595 0.6677 0.171311
651 2 0.989664 0.594135 0.21274
2055 2 0.991617 0.869561 0.312565
1292 2 0.955784 0.561045 0.443467
1777 1 0.836052 0.648549 0.386949
1779 2 0.839282 0.603619 0.416736
1177 1 0.839261 0.584459 0.241282
1456 1 0.833961 0.790766 0.0434026
669 2 0.912178 0.519462 0.386175
1178 2 0.855953 0.550461 0.236015
1599 2 0.971192 0.74106 0.0503724
1597 1 0.976511 0.69696 0.0212778
969 2 0.958194 0.782517 0.393763
967 1 0.944502 0.745222 0.413207
968 2 0.930134 0.738267 0.373222
919 1 0.979483 0.976288 0.377411
1915 1 0.886415 0.57775 0.0569431
1916 2 0.882953 0.624911 0.0828642
789 2 0.872985 0.774871 0.333633
788 2 0.856068 0.739725 0.399691
787 1 0.864589 0.786718 0.382418
1979 2 0.953749 0.858171 0.177276
1980 2 0.931887 0.909669 0.218692
1978 1 0.942104 0.861875 0.222975
1809 2 0.916065 0.775309 0.254952
1291 1 0.948051 0.587628 0.400082
1293 2 0.9517 0.64025 0.410966
2072 2 0.856626 0.668108 0.18129
2073 2 0.858371 0.716185 0.109836
2071 1 0.870252 0.697982 0.15149
960 2 0.843548 0.958339 0.37444
1898 2 0.893286 0.993646 0.275491
1897 1 0.899749 0.987677 0.223828
959 2 0.841525 0.872316 0.377672
1807 1 0.908251 0.727232 0.271364
1942 1 0.975927 0.532006 0.0328832
1943 2 0.976574 0.586104 0.0394896
1808 2 0.899017 0.706171 0.226847
1947 2 0.92341 0.80105 0.488362
237 2 0.85774 0.519664 0.0242397
1925 2 0.972081 0.909666 0.0285513
1917 2 0.893237 0.592417 0.00735511
906 2 0.0350663 0.422423 0.500908
1959 2 0.161919 0.0800246 0.946078
1135 1 0.137965 0.206468 0.544163
1518 2 0.102799 0.144661 0.508092
1137 2 0.127923 0.245237 0.572839
1957 1 0.142279 0.0591973 0.938203
1155 2 0.103169 0.355283 0.645478
1153 1 0.103701 0.305218 0.623922
1251 2 0.0580019 0.0966585 0.956552
1249 1 0.0430612 0.0574251 0.956196
1250 2 0.0504864 0.0205892 0.920672
2063 2 0.111487 0.418747 0.861806
1700 2 0.0803901 0.183182 0.765159
1517 2 0.093304 0.0635433 0.524756
1719 2 0.0590209 0.0338117 0.790336
1701 2 0.0975606 0.237447 0.714182
1699 1 0.0941159 0.225147 0.76658
1935 2 0.133191 0.259656 0.790676
1934 2 0.146453 0.321957 0.839928
2064 2 0.126024 0.411377 0.939428
2062 1 0.130062 0.405921 0.886151
1958 2 0.14533 0.00522894 0.937421
1568 2 0.109837 0.116154 0.930179
1826 2 0.0597351 0.383633 0.822022
1825 1 0.0797467 0.377885 0.802837
1827 2 0.0837608 0.32447 0.806878
2153 2 0.0651233 0.252948 0.952221
1569 2 0.104365 0.192847 0.967092
1567 1 0.0945059 0.153389 0.938954
2152 1 0.0459616 0.277744 0.951953
1933 1 0.151908 0.278914 0.809444
1759 1 0.0680886 0.48574 0.977422
1154 2 0.0836174 0.296494 0.606418
1384 1 0.142299 0.417256 0.520453
1385 2 0.139772 0.388354 0.566241
535 1 0.045935 0.107878 0.731934
537 2 0.042518 0.0915809 0.680628
589 1 0.0419965 0.267406 0.573903
591 2 0.0303389 0.230981 0.546093
2163 2 0.134529 0.0232033 0.801794
2161 1 0.13031 0.0168649 0.748705
1492 1 0.0999856 0.00881207 0.617602
536 2 0.0279269 0.134316 0.745767
1166 2 0.0174041 0.358791 0.800502
1165 1 0.0236648 0.39514 0.837919
1167 2 0.0281348 0.365238 0.882084
1494 2 0.108535 0.0259304 0.664618
1496 2 0.00300872 0.0832041 0.980222
1797 2 0.00819757 0.247685 0.941537
1267 1 0.0915781 0.443413 0.664257
1268 2 0.0860797 0.414439 0.708294
2162 2 0.149639 0.010897 0.725512
590 2 0.0312878 0.274141 0.620712
1858 1 0.00889855 0.313015 0.709402
1176 2 0.0756153 0.499963 0.508182
1175 2 0.103669 0.451455 0.50278
201 2 0.0315803 0.0102746 0.563412
1475 2 0.0106596 0.494616 0.825127
199 1 0.0296145 0.0626451 0.577747
1269 2 0.0741389 0.473303 0.653013
200 2 0.0480571 0.0857089 0.561726
973 1 0.200361 0.102839 0.984042
975 2 0.212775 0.0608107 0.998767
717 2 0.170134 0.432541 0.683902
715 1 0.167276 0.379623 0.672941
1833 2 0.287498 0.34167 0.935294
917 2 0.197054 0.191206 0.931506
916 1 0.202881 0.232596 0.899229
918 2 0.184415 0.250578 0.877786
1280 2 0.173426 0.444229 0.85651
186 2 0.2139 0.329122 0.920215
2030 2 0.179654 0.234276 0.747709
184 1 0.218864 0.379959 0.93539
185 2 0.238843 0.387676 0.916684
2031 2 0.210247 0.268951 0.732753
2029 1 0.196979 0.229547 0.715728
1281 2 0.205191 0.465677 0.878799
1964 2 0.246026 0.228293 0.872978
1963 1 0.263642 0.215501 0.844406
716 2 0.168629 0.355015 0.721476
1552 1 0.220014 0.348511 0.58576
1219 1 0.2374 0.33284 0.763088
1221 2 0.243596 0.382098 0.745766
1220 2 0.253044 0.316997 0.797003
1303 1 0.267127 0.129203 0.712279
1305 2 0.248151 0.108923 0.696495
1965 2 0.256545 0.182278 0.80509
1831 1 0.280458 0.380502 0.90143
1832 2 0.284737 0.427251 0.927314
1304 2 0.280958 0.0879569 0.705711
1553 2 0.20946 0.317861 0.622068
1969 1 0.281508 0.267205 0.636698
1970 2 0.264868 0.299971 0.647709
1971 2 0.27665 0.220262 0.661553
1003 1 0.186334 0.14042 0.596806
2128 1 0.188261 0.0102945 0.688044
1005 2 0.167144 0.159694 0.581431
2130 2 0.188387 0.0586697 0.662891
1004 2 0.194441 0.179298 0.629047
1554 2 0.209007 0.395334 0.584209
315 2 0.30679 0.329755 0.683055
1200 2 0.33309 0.379963 0.790591
314 2 0.293297 0.406183 0.703701
313 1 0.311577 0.377546 0.706333
117 2 0.319247 0.0104843 0.656459
115 1 0.316825 0.0195488 0.709873
630 2 0.28624 0.250284 0.538893
629 2 0.318344 0.237137 0.513506
1880 2 0.326302 0.215307 0.922112
1881 2 0.298794 0.242098 0.878992
1879 1 0.320193 0.238033 0.875029
1279 1 0.18678 0.486828 0.860123
1774 1 0.260286 0.464249 0.698773
1775 2 0.260219 0.482468 0.647382
6 3 0.427864 0.398311 0.520468
935 2 0.47076 0.247539 0.51147
467 2 0.494499 0.164556 0.945378
1875 2 0.335761 0.419782 0.635145
1199 2 0.338986 0.325161 0.855476
1026 2 0.350549 0.450637 0.898129
1198 1 0.345084 0.373436 0.835384
2012 2 0.334435 0.185446 0.794944
2013 2 0.334777 0.116988 0.74251
1025 2 0.360677 0.467587 0.978693
1660 1 0.393652 0.0013293 0.964656
1624 1 0.440527 0.386144 0.978698
1662 2 0.406517 0.0416385 0.947763
1061 2 0.445936 0.100038 0.937124
1060 1 0.430461 0.110033 0.900585
1639 1 0.358855 0.295454 0.532891
1062 2 0.438693 0.0930625 0.853153
1641 2 0.352052 0.340265 0.55873
881 2 0.429597 0.218185 0.883189
1640 2 0.369133 0.266735 0.57123
1581 2 0.399057 0.00889579 0.831048
880 1 0.433492 0.269267 0.866878
1579 1 0.384625 0.00269863 0.791087
1580 2 0.371944 0.0465671 0.795046
2011 1 0.34777 0.152017 0.768233
619 1 0.469414 0.165607 0.760753
620 2 0.467591 0.202919 0.800243
1743 2 0.418021 0.0574111 0.64117
8 5 0.409265 0.368873 0.55542
9 4 0.447614 0.437342 0.537691
1626 2 0.426269 0.422271 0.959663
882 2 0.439339 0.295505 0.912321
679 1 0.388694 0.247048 0.678011
680 2 0.382582 0.210842 0.715723
681 2 0.392483 0.292784 0.706099
1404 2 0.382654 0.363354 0.808437
1403 2 0.414425 0.332477 0.80739
1402 1 0.400612 0.362613 0.778414
1659 2 0.414287 0.182925 0.631266
934 1 0.477366 0.240198 0.56284
1658 2 0.443767 0.152252 0.661509
1657 1 0.430924 0.151088 0.617779
936 2 0.462808 0.206424 0.584546
1538 2 0.402538 0.459114 0.716242
1873 1 0.347223 0.437297 0.592455
12 5 0.446349 0.393347 0.646005
1874 2 0.363705 0.464486 0.614569
10 3 0.458507 0.41948 0.593892
11 5 0.479379 0.386155 0.582717
621 2 0.479956 0.124213 0.784114
1742 2 0.404653 0.00312605 0.698982
1741 1 0.412115 0.00541283 0.647893
1537 1 0.399045 0.487136 0.670314
13 3 0.474275 0.492911 0.619641
14 5 0.490292 0.47057 0.669974
466 1 0.497446 0.200613 0.905165
1966 1 0.484211 0.433128 0.837134
1968 2 0.494589 0.480865 0.835601
1024 1 0.353025 0.491493 0.933688
1539 2 0.418375 0.490316 0.646584
522 2 0.442262 0.105198 0.531202
574 1 0.463992 0.00414979 0.81955
1967 2 0.465728 0.444143 0.862782
197 2 0.516673 0.166239 0.532462
2131 1 0.554292 0.443393 0.9936
1340 2 0.620551 0.336783 0.932957
1341 2 0.587536 0.342473 0.953059
1339 1 0.602507 0.307237 0.935974
1526 2 0.603067 0.00818305 0.89094
1017 2 0.504788 0.253688 0.640406
1015 1 0.51284 0.263113 0.690083