LAMMPS (29 Sep 2021 - Update 2)
OMP_NUM_THREADS environment is not set. Defaulting to 1 thread. (src/comm.cpp:98)
  using 1 OpenMP thread(s) per MPI task
# ethanol at a nacl surface
# variables
variable pre equal 1 # desired pressure (Atm)
variable tem equal 300 # desired temperature (K)
variable k1 equal 0.5 # spring constant
variable k2 equal 5 # spring constant
# main parameters
units real # style of units (A, fs, Kcal/mol)
atom_style full # molecular + charge
bond_style harmonic
angle_style harmonic
dihedral_style harmonic
boundary p p p # periodic boundary conditions
pair_style lj/cut/coul/long 10 # cut-off 1 nm
kspace_style pppm 1.0e-4
pair_modify mix arithmetic tail yes # eij = sqrt(ei*ej), dij = 0.5*(di+dj)
# import positions and parameters
read_data data.npt
ERROR: Cannot open file data.npt: No such file or directory (src/read_data.cpp:312)
Last command: read_data data.npt
