LAMMPS (23 Jun 2022 - Update 4)
OMP_NUM_THREADS environment is not set. Defaulting to 1 thread. (src/comm.cpp:98)
  using 1 OpenMP thread(s) per MPI task
# Initialization
units metal
boundary p p p
atom_style full
neighbor 1.0 bin
neigh_modify delay 1

# System definition
read_data ../SilicaBlock/amorphousSiO.data
Reading data file ...
  orthogonal box = (1.2258943 1.2587857 -1.0292656) to (19.359683 19.326792 21.614843)
  2 by 1 by 2 MPI processor grid
  reading atoms ...
  576 atoms
  reading velocities ...
  576 velocities
Finding 1-2 1-3 1-4 neighbors ...
  special bond factors lj:    0        0        0       
  special bond factors coul:  0        0        0       
     0 = max # of 1-2 neighbors
     0 = max # of 1-3 neighbors
     0 = max # of 1-4 neighbors
     1 = max # of special neighbors
  special bonds CPU = 0.000 seconds
  read_data CPU = 0.013 seconds

# Simulation settings
pair_style vashishta
pair_coeff * * ../SilicaBlock/SiO.1990.vashishta Si O
Reading vashishta potential file ../SilicaBlock/SiO.1990.vashishta with DATE: 2015-10-14
dump dmp all atom 1000 dump.lammpstrj

# Run
fix nvt1 all nvt temp 300 300 0.1
timestep 0.001
thermo 1000
variable var loop 45
label loop
change_box all z scale 1.005 remap
Changing box ...
  orthogonal box = (1.2258943 1.2587857 -1.0858759) to (19.359683 19.326792 21.671454)
run 2000
Neighbor list info ...
  update every 1 steps, delay 1 steps, check yes
  max neighbors/atom: 2000, page size: 100000
  master list distance cutoff = 11
  ghost atom cutoff = 11
  binsize = 5.5, bins = 4 4 5
  1 neighbor lists, perpetual/occasional/extra = 1 0 0
  (1) pair vashishta, perpetual
      attributes: full, newton on
      pair build: full/bin
      stencil: full/bin/3d
      bin: standard
Per MPI rank memory allocation (min/avg/max) = 7.235 | 7.236 | 7.237 Mbytes
   Step          Temp          E_pair         E_mol          TotEng         Press     
         0   318.82966     -5179.2796      0             -5155.5827     -13368.068    
      1000   301.11903     -5180.4497      0             -5158.0691     -1878.3605    
      2000   296.85504     -5178.3733      0             -5156.3097     -11221.418    
Loop time of 3.71042 on 4 procs for 2000 steps with 576 atoms

Performance: 46.572 ns/day, 0.515 hours/ns, 539.022 timesteps/s
99.3% CPU use with 4 MPI tasks x 1 OpenMP threads

MPI task timing breakdown:
Section |  min time  |  avg time  |  max time  |%varavg| %total
---------------------------------------------------------------
Pair    | 3.4636     | 3.4857     | 3.5096     |   1.2 | 93.94
Bond    | 0.0001105  | 0.0001227  | 0.00013384 |   0.0 |  0.00
Neigh   | 0.028305   | 0.028698   | 0.029114   |   0.2 |  0.77
Comm    | 0.15807    | 0.1814     | 0.20386    |   5.1 |  4.89
Output  | 0.00035276 | 0.00035721 | 0.00036694 |   0.0 |  0.01
Modify  | 0.0065541  | 0.0067724  | 0.0069675  |   0.2 |  0.18
Other   |            | 0.00734    |            |       |  0.20

Nlocal:            144 ave         145 max         143 min
Histogram: 1 0 0 0 0 2 0 0 0 1
Nghost:           3054 ave        3081 max        3012 min
Histogram: 1 0 0 0 0 0 1 1 0 1
Neighs:              0 ave           0 max           0 min
Histogram: 4 0 0 0 0 0 0 0 0 0
FullNghs:      61800.5 ave       62326 max       61451 min
Histogram: 1 0 1 1 0 0 0 0 0 1

Total # of neighbors = 247202
Ave neighs/atom = 429.17014
Ave special neighs/atom = 0
Neighbor list builds = 22
Dangerous builds = 0
next var
jump input.lammps loop
change_box all z scale 1.005 remap
Changing box ...
  orthogonal box = (1.2258943 1.2587857 -1.1427692) to (19.359683 19.326792 21.728347)
run 2000
Per MPI rank memory allocation (min/avg/max) = 7.236 | 7.237 | 7.237 Mbytes
   Step          Temp          E_pair         E_mol          TotEng         Press     
      2000   296.85504     -5177.7895      0             -5155.7258     -24112.769    
      3000   287.60696     -5178.4599      0             -5157.0837     -11514.789    
      4000   309.76218     -5178.8792      0             -5155.8562     -9067.4866    
Loop time of 3.69737 on 4 procs for 2000 steps with 576 atoms

Performance: 46.736 ns/day, 0.514 hours/ns, 540.926 timesteps/s
99.2% CPU use with 4 MPI tasks x 1 OpenMP threads

MPI task timing breakdown:
Section |  min time  |  avg time  |  max time  |%varavg| %total
---------------------------------------------------------------
Pair    | 3.4404     | 3.4673     | 3.5107     |   1.5 | 93.78
Bond    | 0.00010977 | 0.00012178 | 0.0001309  |   0.0 |  0.00
Neigh   | 0.026916   | 0.027446   | 0.028307   |   0.3 |  0.74
Comm    | 0.1453     | 0.18792    | 0.2145     |   6.2 |  5.08
Output  | 0.00034324 | 0.00034763 | 0.00035743 |   0.0 |  0.01
Modify  | 0.0066438  | 0.0068907  | 0.0071591  |   0.3 |  0.19
Other   |            | 0.007317   |            |       |  0.20

Nlocal:            144 ave         147 max         139 min
Histogram: 1 0 0 0 0 0 1 0 1 1
Nghost:        3066.75 ave        3085 max        3039 min
Histogram: 1 0 0 0 0 0 1 1 0 1
Neighs:              0 ave           0 max           0 min
Histogram: 4 0 0 0 0 0 0 0 0 0
FullNghs:        61487 ave       62817 max       59390 min
Histogram: 1 0 0 0 0 1 0 0 1 1

Total # of neighbors = 245948
Ave neighs/atom = 426.99306
Ave special neighs/atom = 0
Neighbor list builds = 21
Dangerous builds = 0
next var
jump input.lammps loop
change_box all z scale 1.005 remap
Changing box ...
  orthogonal box = (1.2258943 1.2587857 -1.199947) to (19.359683 19.326792 21.785525)
run 2000
Per MPI rank memory allocation (min/avg/max) = 7.236 | 7.237 | 7.237 Mbytes
   Step          Temp          E_pair         E_mol          TotEng         Press     
      4000   309.76218     -5178.1882      0             -5155.1653     -21936.979    
      5000   301.32239     -5177.3113      0             -5154.9156     -9553.6467    
      6000   292.2221      -5178.2569      0             -5156.5377     -13062.675    
Loop time of 3.69333 on 4 procs for 2000 steps with 576 atoms

Performance: 46.787 ns/day, 0.513 hours/ns, 541.516 timesteps/s
99.7% CPU use with 4 MPI tasks x 1 OpenMP threads

MPI task timing breakdown:
Section |  min time  |  avg time  |  max time  |%varavg| %total
---------------------------------------------------------------
Pair    | 3.443      | 3.4639     | 3.4885     |   0.9 | 93.79
Bond    | 0.00010932 | 0.00012349 | 0.0001334  |   0.0 |  0.00
Neigh   | 0.028192   | 0.028828   | 0.02961    |   0.3 |  0.78
Comm    | 0.16174    | 0.18561    | 0.20623    |   3.7 |  5.03
Output  | 0.00041185 | 0.00041611 | 0.00042735 |   0.0 |  0.01
Modify  | 0.0069766  | 0.0070477  | 0.0071309  |   0.1 |  0.19
Other   |            | 0.00745    |            |       |  0.20

Nlocal:            144 ave         146 max         142 min
Histogram: 1 0 1 0 0 0 0 1 0 1
Nghost:         3030.5 ave        3058 max        2987 min
Histogram: 1 0 0 0 0 0 0 2 0 1
Neighs:              0 ave           0 max           0 min
Histogram: 4 0 0 0 0 0 0 0 0 0
FullNghs:      61175.5 ave       62050 max       60323 min
Histogram: 1 0 1 0 0 0 0 1 0 1

Total # of neighbors = 244702
Ave neighs/atom = 424.82986
Ave special neighs/atom = 0
Neighbor list builds = 22
Dangerous builds = 0
next var
jump input.lammps loop
change_box all z scale 1.005 remap
Changing box ...
  orthogonal box = (1.2258943 1.2587857 -1.2574107) to (19.359683 19.326792 21.842988)
run 2000
Per MPI rank memory allocation (min/avg/max) = 7.236 | 7.237 | 7.237 Mbytes
   Step          Temp          E_pair         E_mol          TotEng         Press     
      6000   292.2221      -5177.2931      0             -5155.5738     -25634.086    
      7000   306.32541     -5176.4106      0             -5153.6431     -14987.114    
      8000   304.52505     -5178.5852      0             -5155.9515     -12714.514    
Loop time of 3.72178 on 4 procs for 2000 steps with 576 atoms

Performance: 46.429 ns/day, 0.517 hours/ns, 537.378 timesteps/s
99.4% CPU use with 4 MPI tasks x 1 OpenMP threads

MPI task timing breakdown:
Section |  min time  |  avg time  |  max time  |%varavg| %total
---------------------------------------------------------------
Pair    | 3.4769     | 3.4929     | 3.5112     |   0.7 | 93.85
Bond    | 0.0001137  | 0.00012518 | 0.00013619 |   0.0 |  0.00
Neigh   | 0.029517   | 0.030222   | 0.030785   |   0.3 |  0.81
Comm    | 0.16442    | 0.18334    | 0.19885    |   3.0 |  4.93
Output  | 0.00062851 | 0.00063242 | 0.00064198 |   0.0 |  0.02
Modify  | 0.0070004  | 0.0070985  | 0.0071808  |   0.1 |  0.19
Other   |            | 0.007415   |            |       |  0.20

Nlocal:            144 ave         149 max         140 min
Histogram: 1 1 0 0 0 0 1 0 0 1
Nghost:           3036 ave        3064 max        2991 min
Histogram: 1 0 0 0 0 0 1 0 1 1
Neighs:              0 ave           0 max           0 min
Histogram: 4 0 0 0 0 0 0 0 0 0
FullNghs:        60863 ave       63069 max       59330 min
Histogram: 2 0 0 0 0 0 1 0 0 1

Total # of neighbors = 243452
Ave neighs/atom = 422.65972
Ave special neighs/atom = 0
Neighbor list builds = 23
Dangerous builds = 0
next var
jump input.lammps loop
change_box all z scale 1.005 remap
Changing box ...
  orthogonal box = (1.2258943 1.2587857 -1.3151617) to (19.359683 19.326792 21.900739)
run 2000
Per MPI rank memory allocation (min/avg/max) = 7.236 | 7.237 | 7.237 Mbytes
   Step          Temp          E_pair         E_mol          TotEng         Press     
      8000   304.52505     -5177.6674      0             -5155.0337     -25275.085    
      9000   284.31739     -5175.5327      0             -5154.401      -18223.797    
     10000   289.70888     -5177.0876      0             -5155.5551     -19775.422    
Loop time of 3.88952 on 4 procs for 2000 steps with 576 atoms

Performance: 44.427 ns/day, 0.540 hours/ns, 514.202 timesteps/s
99.3% CPU use with 4 MPI tasks x 1 OpenMP threads

MPI task timing breakdown:
Section |  min time  |  avg time  |  max time  |%varavg| %total
---------------------------------------------------------------
Pair    | 3.6439     | 3.6556     | 3.6693     |   0.5 | 93.99
Bond    | 0.00013407 | 0.00013802 | 0.00014279 |   0.0 |  0.00
Neigh   | 0.027077   | 0.027577   | 0.028002   |   0.2 |  0.71
Comm    | 0.17747    | 0.19047    | 0.20175    |   2.3 |  4.90
Output  | 0.00036672 | 0.00037056 | 0.00038003 |   0.0 |  0.01
Modify  | 0.0073571  | 0.0075281  | 0.0076945  |   0.1 |  0.19
Other   |            | 0.00781    |            |       |  0.20

Nlocal:            144 ave         147 max         141 min
Histogram: 1 0 0 1 0 0 1 0 0 1
Nghost:         3022.5 ave        3057 max        2970 min
Histogram: 1 0 0 0 0 0 1 1 0 1
Neighs:              0 ave           0 max           0 min
Histogram: 4 0 0 0 0 0 0 0 0 0
FullNghs:      60574.5 ave       61891 max       59443 min
Histogram: 1 0 1 0 0 0 1 0 0 1

Total # of neighbors = 242298
Ave neighs/atom = 420.65625
Ave special neighs/atom = 0
Neighbor list builds = 20
Dangerous builds = 0
next var
jump input.lammps loop
change_box all z scale 1.005 remap
Changing box ...
  orthogonal box = (1.2258943 1.2587857 -1.3732015) to (19.359683 19.326792 21.958779)
run 2000
Per MPI rank memory allocation (min/avg/max) = 7.236 | 7.237 | 7.237 Mbytes
   Step          Temp          E_pair         E_mol          TotEng         Press     
     10000   289.70888     -5176.0029      0             -5154.4704     -32185.182    
     11000   288.27574     -5174.3351      0             -5152.9092     -23538.233    
     12000   289.5032      -5175.853       0             -5154.3358     -26011.75     
Loop time of 4.18396 on 4 procs for 2000 steps with 576 atoms

Performance: 41.301 ns/day, 0.581 hours/ns, 478.016 timesteps/s
99.0% CPU use with 4 MPI tasks x 1 OpenMP threads

MPI task timing breakdown:
Section |  min time  |  avg time  |  max time  |%varavg| %total
---------------------------------------------------------------
Pair    | 3.9032     | 3.9241     | 3.947      |   0.9 | 93.79
Bond    | 0.00013173 | 0.00014402 | 0.00015295 |   0.0 |  0.00
Neigh   | 0.033608   | 0.034398   | 0.035491   |   0.4 |  0.82
Comm    | 0.18646    | 0.20859    | 0.22921    |   4.1 |  4.99
Output  | 0.00039733 | 0.00040179 | 0.00041199 |   0.0 |  0.01
Modify  | 0.0078638  | 0.0080162  | 0.0081414  |   0.1 |  0.19
Other   |            | 0.008326   |            |       |  0.20

Nlocal:            144 ave         148 max         140 min
Histogram: 1 0 1 0 0 0 0 1 0 1
Nghost:        3014.25 ave        3046 max        2962 min
Histogram: 1 0 0 0 0 0 1 0 1 1
Neighs:              0 ave           0 max           0 min
Histogram: 4 0 0 0 0 0 0 0 0 0
FullNghs:      60242.5 ave       61928 max       58622 min
Histogram: 1 0 1 0 0 0 0 1 0 1

Total # of neighbors = 240970
Ave neighs/atom = 418.35069
Ave special neighs/atom = 0
Neighbor list builds = 23
Dangerous builds = 0
next var
jump input.lammps loop
change_box all z scale 1.005 remap
Changing box ...
  orthogonal box = (1.2258943 1.2587857 -1.4315314) to (19.359683 19.326792 22.017109)
run 2000
Per MPI rank memory allocation (min/avg/max) = 7.236 | 7.237 | 7.237 Mbytes
   Step          Temp          E_pair         E_mol          TotEng         Press     
     12000   289.5032      -5174.4368      0             -5152.9196     -38019.86     
     13000   298.98392     -5173.3132      0             -5151.0913     -25213.227    
     14000   296.60983     -5173.8996      0             -5151.8542     -30804.371    
Loop time of 4.68597 on 4 procs for 2000 steps with 576 atoms

Performance: 36.876 ns/day, 0.651 hours/ns, 426.806 timesteps/s
99.4% CPU use with 4 MPI tasks x 1 OpenMP threads

MPI task timing breakdown:
Section |  min time  |  avg time  |  max time  |%varavg| %total
---------------------------------------------------------------
Pair    | 4.3033     | 4.3781     | 4.4649     |   2.8 | 93.43
Bond    | 0.00014332 | 0.00016006 | 0.00017261 |   0.0 |  0.00
Neigh   | 0.03608    | 0.036767   | 0.037148   |   0.2 |  0.78
Comm    | 0.16529    | 0.25223    | 0.32652    |  11.5 |  5.38
Output  | 0.00046482 | 0.00047062 | 0.00048687 |   0.0 |  0.01
Modify  | 0.0088789  | 0.0089366  | 0.0089689  |   0.0 |  0.19
Other   |            | 0.009308   |            |       |  0.20

Nlocal:            144 ave         148 max         140 min
Histogram: 1 1 0 0 0 0 0 0 1 1
Nghost:        3021.25 ave        3051 max        2964 min
Histogram: 1 0 0 0 0 0 0 1 0 2
Neighs:              0 ave           0 max           0 min
Histogram: 4 0 0 0 0 0 0 0 0 0
FullNghs:        59949 ave       61580 max       58324 min
Histogram: 1 1 0 0 0 0 0 0 1 1

Total # of neighbors = 239796
Ave neighs/atom = 416.3125
Ave special neighs/atom = 0
Neighbor list builds = 22
Dangerous builds = 0
next var
jump input.lammps loop
change_box all z scale 1.005 remap
Changing box ...
  orthogonal box = (1.2258943 1.2587857 -1.490153) to (19.359683 19.326792 22.075731)
run 2000
Per MPI rank memory allocation (min/avg/max) = 7.236 | 7.237 | 7.237 Mbytes
   Step          Temp          E_pair         E_mol          TotEng         Press     
     14000   296.60983     -5172.3193      0             -5150.2739     -42623.665    
     15000   307.24872     -5174.1358      0             -5151.2997     -31692.185    
     16000   318.17324     -5171.3702      0             -5147.7221     -31668.353    
Loop time of 4.66613 on 4 procs for 2000 steps with 576 atoms

Performance: 37.033 ns/day, 0.648 hours/ns, 428.620 timesteps/s
99.1% CPU use with 4 MPI tasks x 1 OpenMP threads

MPI task timing breakdown:
Section |  min time  |  avg time  |  max time  |%varavg| %total
---------------------------------------------------------------
Pair    | 4.2794     | 4.3562     | 4.4059     |   2.3 | 93.36
Bond    | 0.00013544 | 0.00015923 | 0.00017919 |   0.0 |  0.00
Neigh   | 0.037354   | 0.037857   | 0.038512   |   0.3 |  0.81
Comm    | 0.20407    | 0.253      | 0.32884    |   9.6 |  5.42
Output  | 0.00046268 | 0.00046827 | 0.00048433 |   0.0 |  0.01
Modify  | 0.0089508  | 0.0092154  | 0.009508   |   0.3 |  0.20
Other   |            | 0.009281   |            |       |  0.20

Nlocal:            144 ave         145 max         143 min
Histogram: 1 0 0 0 0 2 0 0 0 1
Nghost:         3001.5 ave        3028 max        2962 min
Histogram: 1 0 0 0 1 0 0 0 0 2
Neighs:              0 ave           0 max           0 min
Histogram: 4 0 0 0 0 0 0 0 0 0
FullNghs:      59683.5 ave       60159 max       59211 min
Histogram: 1 0 0 0 1 1 0 0 0 1

Total # of neighbors = 238734
Ave neighs/atom = 414.46875
Ave special neighs/atom = 0
Neighbor list builds = 23
Dangerous builds = 0
next var
jump input.lammps loop
change_box all z scale 1.005 remap
Changing box ...
  orthogonal box = (1.2258943 1.2587857 -1.5490677) to (19.359683 19.326792 22.134645)
run 2000
Per MPI rank memory allocation (min/avg/max) = 7.236 | 7.237 | 7.237 Mbytes
   Step          Temp          E_pair         E_mol          TotEng         Press     
     16000   318.17324     -5169.6843      0             -5146.0362     -43446.731    
     17000   291.53032     -5171.5307      0             -5149.8628     -32581.53     
     18000   318.9976      -5170.4407      0             -5146.7314     -33898.552    
Loop time of 4.60117 on 4 procs for 2000 steps with 576 atoms

Performance: 37.556 ns/day, 0.639 hours/ns, 434.672 timesteps/s
99.5% CPU use with 4 MPI tasks x 1 OpenMP threads

MPI task timing breakdown:
Section |  min time  |  avg time  |  max time  |%varavg| %total
---------------------------------------------------------------
Pair    | 4.2503     | 4.3178     | 4.3606     |   2.0 | 93.84
Bond    | 0.00013679 | 0.00015633 | 0.00017303 |   0.0 |  0.00
Neigh   | 0.042153   | 0.042998   | 0.043893   |   0.3 |  0.93
Comm    | 0.17885    | 0.22146    | 0.28804    |   8.8 |  4.81
Output  | 0.00045443 | 0.00046057 | 0.00047718 |   0.0 |  0.01
Modify  | 0.0087225  | 0.0090131  | 0.0092951  |   0.3 |  0.20
Other   |            | 0.009318   |            |       |  0.20

Nlocal:            144 ave         148 max         140 min
Histogram: 1 0 0 1 0 0 1 0 0 1
Nghost:        3002.75 ave        3038 max        2950 min
Histogram: 1 0 0 0 0 1 0 0 1 1
Neighs:              0 ave           0 max           0 min
Histogram: 4 0 0 0 0 0 0 0 0 0
FullNghs:        59361 ave       61097 max       57801 min
Histogram: 1 0 0 1 0 1 0 0 0 1

Total # of neighbors = 237444
Ave neighs/atom = 412.22917
Ave special neighs/atom = 0
Neighbor list builds = 26
Dangerous builds = 0
next var
jump input.lammps loop
change_box all z scale 1.005 remap
Changing box ...
  orthogonal box = (1.2258943 1.2587857 -1.608277) to (19.359683 19.326792 22.193855)
run 2000
Per MPI rank memory allocation (min/avg/max) = 7.236 | 7.237 | 7.237 Mbytes
   Step          Temp          E_pair         E_mol          TotEng         Press     
     18000   318.9976      -5168.5435      0             -5144.8342     -45412.513    
     19000   296.18684     -5170.7079      0             -5148.694      -40390.947    
     20000   305.82207     -5169.007       0             -5146.2769     -40126.437    
Loop time of 4.62367 on 4 procs for 2000 steps with 576 atoms

Performance: 37.373 ns/day, 0.642 hours/ns, 432.557 timesteps/s
99.4% CPU use with 4 MPI tasks x 1 OpenMP threads

MPI task timing breakdown:
Section |  min time  |  avg time  |  max time  |%varavg| %total
---------------------------------------------------------------
Pair    | 4.2314     | 4.3059     | 4.3638     |   2.3 | 93.13
Bond    | 0.00013864 | 0.00015703 | 0.00017312 |   0.0 |  0.00
Neigh   | 0.039344   | 0.039721   | 0.040276   |   0.2 |  0.86
Comm    | 0.20153    | 0.25921    | 0.33331    |   9.3 |  5.61
Output  | 0.00047452 | 0.00048081 | 0.00049764 |   0.0 |  0.01
Modify  | 0.0087892  | 0.0089319  | 0.0090407  |   0.1 |  0.19
Other   |            | 0.009262   |            |       |  0.20

Nlocal:            144 ave         146 max         142 min
Histogram: 2 0 0 0 0 0 0 0 0 2
Nghost:           2977 ave        2995 max        2936 min
Histogram: 1 0 0 0 0 0 0 0 1 2
Neighs:              0 ave           0 max           0 min
Histogram: 4 0 0 0 0 0 0 0 0 0
FullNghs:        59076 ave       59918 max       58234 min
Histogram: 2 0 0 0 0 0 0 0 0 2

Total # of neighbors = 236304
Ave neighs/atom = 410.25
Ave special neighs/atom = 0
Neighbor list builds = 24
Dangerous builds = 0
next var
jump input.lammps loop
change_box all z scale 1.005 remap
Changing box ...
  orthogonal box = (1.2258943 1.2587857 -1.6677823) to (19.359683 19.326792 22.25336)
run 2000
Per MPI rank memory allocation (min/avg/max) = 7.236 | 7.237 | 7.237 Mbytes
   Step          Temp          E_pair         E_mol          TotEng         Press     
     20000   305.82207     -5167.1306      0             -5144.4005     -51571.491    
     21000   295.23551     -5169.2776      0             -5147.3343     -41955.258    
     22000   305.3779      -5167.4197      0             -5144.7226     -41333.943    
Loop time of 4.57419 on 4 procs for 2000 steps with 576 atoms

Performance: 37.777 ns/day, 0.635 hours/ns, 437.236 timesteps/s
98.8% CPU use with 4 MPI tasks x 1 OpenMP threads

MPI task timing breakdown:
Section |  min time  |  avg time  |  max time  |%varavg| %total
---------------------------------------------------------------
Pair    | 4.1847     | 4.2784     | 4.3398     |   2.8 | 93.53
Bond    | 0.00013836 | 0.00015781 | 0.00017208 |   0.0 |  0.00
Neigh   | 0.040094   | 0.040872   | 0.041843   |   0.3 |  0.89
Comm    | 0.1753     | 0.23589    | 0.32877    |  11.8 |  5.16
Output  | 0.00048116 | 0.00048679 | 0.00050257 |   0.0 |  0.01
Modify  | 0.0087265  | 0.0091276  | 0.0095562  |   0.4 |  0.20
Other   |            | 0.009299   |            |       |  0.20

Nlocal:            144 ave         150 max         138 min
Histogram: 1 0 0 1 0 0 1 0 0 1
Nghost:        2979.25 ave        3013 max        2921 min
Histogram: 1 0 0 0 0 0 1 0 0 2
Neighs:              0 ave           0 max           0 min
Histogram: 4 0 0 0 0 0 0 0 0 0
FullNghs:      58780.5 ave       61290 max       56306 min
Histogram: 1 0 0 1 0 0 1 0 0 1

Total # of neighbors = 235122
Ave neighs/atom = 408.19792
Ave special neighs/atom = 0
Neighbor list builds = 25
Dangerous builds = 0
next var
jump input.lammps loop
change_box all z scale 1.005 remap
Changing box ...
  orthogonal box = (1.2258943 1.2587857 -1.7275852) to (19.359683 19.326792 22.313163)
run 2000
Per MPI rank memory allocation (min/avg/max) = 7.236 | 7.237 | 7.237 Mbytes
   Step          Temp          E_pair         E_mol          TotEng         Press     
     22000   305.3779      -5165.373       0             -5142.6759     -52548.484    
     23000   307.85851     -5167.1399      0             -5144.2585     -45848.619    
     24000   307.31556     -5165.6501      0             -5142.809      -48620.238    
Loop time of 5.58503 on 4 procs for 2000 steps with 576 atoms

Performance: 30.940 ns/day, 0.776 hours/ns, 358.100 timesteps/s
99.2% CPU use with 4 MPI tasks x 1 OpenMP threads

MPI task timing breakdown:
Section |  min time  |  avg time  |  max time  |%varavg| %total
---------------------------------------------------------------
Pair    | 4.3836     | 4.6108     | 5.2501     |  17.2 | 82.56
Bond    | 0.00016271 | 0.00017135 | 0.00018295 |   0.0 |  0.00
Neigh   | 0.041161   | 0.04425    | 0.051129   |   1.9 |  0.79
Comm    | 0.261      | 0.90583    | 1.1327     |  39.1 | 16.22
Output  | 0.00058056 | 0.00058775 | 0.0006042  |   0.0 |  0.01
Modify  | 0.010235   | 0.012262   | 0.013936   |   1.4 |  0.22
Other   |            | 0.01115    |            |       |  0.20

Nlocal:            144 ave         147 max         141 min
Histogram: 1 1 0 0 0 0 0 0 1 1
Nghost:        2970.75 ave        2991 max        2923 min
Histogram: 1 0 0 0 0 0 0 0 1 2
Neighs:              0 ave           0 max           0 min
Histogram: 4 0 0 0 0 0 0 0 0 0
FullNghs:        58483 ave       59815 max       57331 min
Histogram: 1 1 0 0 0 0 0 1 0 1

Total # of neighbors = 233932
Ave neighs/atom = 406.13194
Ave special neighs/atom = 0
Neighbor list builds = 25
Dangerous builds = 0
next var
jump input.lammps loop
change_box all z scale 1.005 remap
Changing box ...
  orthogonal box = (1.2258943 1.2587857 -1.7876871) to (19.359683 19.326792 22.373265)
run 2000
Per MPI rank memory allocation (min/avg/max) = 7.236 | 7.237 | 7.237 Mbytes
   Step          Temp          E_pair         E_mol          TotEng         Press     
     24000   307.31556     -5163.3586      0             -5140.5175     -59700.326    
     25000   303.41662     -5164.0833      0             -5141.532      -52782.593    
     26000   302.43825     -5165.5876      0             -5143.109      -51724.647    
Loop time of 4.5347 on 4 procs for 2000 steps with 576 atoms

Performance: 38.106 ns/day, 0.630 hours/ns, 441.043 timesteps/s
99.1% CPU use with 4 MPI tasks x 1 OpenMP threads

MPI task timing breakdown:
Section |  min time  |  avg time  |  max time  |%varavg| %total
---------------------------------------------------------------
Pair    | 4.1486     | 4.2368     | 4.302      |   2.8 | 93.43
Bond    | 0.00014188 | 0.00015899 | 0.0001713  |   0.0 |  0.00
Neigh   | 0.03364    | 0.03433    | 0.035212   |   0.3 |  0.76
Comm    | 0.18049    | 0.2449     | 0.33248    |  11.5 |  5.40
Output  | 0.00042145 | 0.00042579 | 0.00043766 |   0.0 |  0.01
Modify  | 0.008484   | 0.0089438  | 0.0093362  |   0.4 |  0.20
Other   |            | 0.009176   |            |       |  0.20

Nlocal:            144 ave         148 max         141 min
Histogram: 1 0 1 0 1 0 0 0 0 1
Nghost:           2956 ave        2984 max        2902 min
Histogram: 1 0 0 0 0 0 0 1 1 1
Neighs:              0 ave           0 max           0 min
Histogram: 4 0 0 0 0 0 0 0 0 0
FullNghs:        58164 ave       59937 max       56877 min
Histogram: 1 0 0 2 0 0 0 0 0 1

Total # of neighbors = 232656
Ave neighs/atom = 403.91667
Ave special neighs/atom = 0
Neighbor list builds = 21
Dangerous builds = 0
next var
jump input.lammps loop
change_box all z scale 1.005 remap
Changing box ...
  orthogonal box = (1.2258943 1.2587857 -1.8480894) to (19.359683 19.326792 22.433667)
run 2000
Per MPI rank memory allocation (min/avg/max) = 7.236 | 7.237 | 7.237 Mbytes
   Step          Temp          E_pair         E_mol          TotEng         Press     
     26000   302.43825     -5163.0233      0             -5140.5447     -62542.241    
     27000   307.53567     -5162.0616      0             -5139.2041     -51902.644    
     28000   290.24941     -5161.8703      0             -5140.2977     -45200.135    
Loop time of 4.49275 on 4 procs for 2000 steps with 576 atoms

Performance: 38.462 ns/day, 0.624 hours/ns, 445.161 timesteps/s
99.4% CPU use with 4 MPI tasks x 1 OpenMP threads

MPI task timing breakdown:
Section |  min time  |  avg time  |  max time  |%varavg| %total
---------------------------------------------------------------
Pair    | 4.1357     | 4.213      | 4.2796     |   2.5 | 93.77
Bond    | 0.00014668 | 0.00015949 | 0.00017018 |   0.0 |  0.00
Neigh   | 0.036674   | 0.037602   | 0.038227   |   0.3 |  0.84
Comm    | 0.15678    | 0.22337    | 0.30034    |  10.9 |  4.97
Output  | 0.00047506 | 0.00048087 | 0.00049566 |   0.0 |  0.01
Modify  | 0.0086513  | 0.0089912  | 0.0092362  |   0.3 |  0.20
Other   |            | 0.00918    |            |       |  0.20

Nlocal:            144 ave         150 max         141 min
Histogram: 2 0 0 1 0 0 0 0 0 1
Nghost:         2945.5 ave        2968 max        2894 min
Histogram: 1 0 0 0 0 0 0 0 1 2
Neighs:              0 ave           0 max           0 min
Histogram: 4 0 0 0 0 0 0 0 0 0
FullNghs:        57943 ave       60544 max       56606 min
Histogram: 2 0 1 0 0 0 0 0 0 1

Total # of neighbors = 231772
Ave neighs/atom = 402.38194
Ave special neighs/atom = 0
Neighbor list builds = 23
Dangerous builds = 0
next var
jump input.lammps loop
change_box all z scale 1.005 remap
Changing box ...
  orthogonal box = (1.2258943 1.2587857 -1.9087938) to (19.359683 19.326792 22.494372)
run 2000
Per MPI rank memory allocation (min/avg/max) = 7.236 | 7.237 | 7.237 Mbytes
   Step          Temp          E_pair         E_mol          TotEng         Press     
     28000   290.24941     -5159.4964      0             -5137.9237     -56280.242    
     29000   313.23028     -5158.9666      0             -5135.6858     -56036.835    
     30000   295.21289     -5159.357       0             -5137.4154     -58866.033    
Loop time of 4.51964 on 4 procs for 2000 steps with 576 atoms

Performance: 38.233 ns/day, 0.628 hours/ns, 442.513 timesteps/s
99.3% CPU use with 4 MPI tasks x 1 OpenMP threads

MPI task timing breakdown:
Section |  min time  |  avg time  |  max time  |%varavg| %total
---------------------------------------------------------------
Pair    | 4.0687     | 4.199      | 4.2633     |   3.7 | 92.91
Bond    | 0.00013442 | 0.00015691 | 0.0001717  |   0.0 |  0.00
Neigh   | 0.038312   | 0.039032   | 0.039718   |   0.3 |  0.86
Comm    | 0.1987     | 0.26298    | 0.3934     |  14.9 |  5.82
Output  | 0.00042246 | 0.0004272  | 0.00043801 |   0.0 |  0.01
Modify  | 0.0085981  | 0.0088879  | 0.0091508  |   0.3 |  0.20
Other   |            | 0.009106   |            |       |  0.20

Nlocal:            144 ave         148 max         138 min
Histogram: 1 0 0 0 0 0 1 0 1 1
Nghost:         2944.5 ave        2960 max        2907 min
Histogram: 1 0 0 0 0 0 0 0 0 3
Neighs:              0 ave           0 max           0 min
Histogram: 4 0 0 0 0 0 0 0 0 0
FullNghs:      57601.5 ave       59290 max       55217 min
Histogram: 1 0 0 0 0 1 0 1 0 1

Total # of neighbors = 230406
Ave neighs/atom = 400.01042
Ave special neighs/atom = 0
Neighbor list builds = 24
Dangerous builds = 0
next var
jump input.lammps loop
change_box all z scale 1.005 remap
Changing box ...
  orthogonal box = (1.2258943 1.2587857 -1.9698017) to (19.359683 19.326792 22.555379)
run 2000
Per MPI rank memory allocation (min/avg/max) = 7.236 | 7.237 | 7.237 Mbytes
   Step          Temp          E_pair         E_mol          TotEng         Press     
     30000   295.21289     -5156.5109      0             -5134.5693     -69387.692    
     31000   305.30171     -5155.1992      0             -5132.5078     -59136.213    
     32000   305.23004     -5157.2015      0             -5134.5154     -59487.991    
Loop time of 4.46491 on 4 procs for 2000 steps with 576 atoms

Performance: 38.702 ns/day, 0.620 hours/ns, 447.937 timesteps/s
99.6% CPU use with 4 MPI tasks x 1 OpenMP threads

MPI task timing breakdown:
Section |  min time  |  avg time  |  max time  |%varavg| %total
---------------------------------------------------------------
Pair    | 4.0425     | 4.1713     | 4.2171     |   3.6 | 93.42
Bond    | 0.0001347  | 0.00015891 | 0.00017263 |   0.0 |  0.00
Neigh   | 0.033543   | 0.034231   | 0.034879   |   0.3 |  0.77
Comm    | 0.19501    | 0.24081    | 0.36969    |  15.2 |  5.39
Output  | 0.00045953 | 0.00046591 | 0.00048318 |   0.0 |  0.01
Modify  | 0.0084695  | 0.0088171  | 0.0091289  |   0.3 |  0.20
Other   |            | 0.009093   |            |       |  0.20

Nlocal:            144 ave         150 max         142 min
Histogram: 3 0 0 0 0 0 0 0 0 1
Nghost:         2923.5 ave        2948 max        2872 min
Histogram: 1 0 0 0 0 0 0 1 0 2
Neighs:              0 ave           0 max           0 min
Histogram: 4 0 0 0 0 0 0 0 0 0
FullNghs:        57290 ave       59852 max       56253 min
Histogram: 3 0 0 0 0 0 0 0 0 1

Total # of neighbors = 229160
Ave neighs/atom = 397.84722
Ave special neighs/atom = 0
Neighbor list builds = 21
Dangerous builds = 0
next var
jump input.lammps loop
change_box all z scale 1.005 remap
Changing box ...
  orthogonal box = (1.2258943 1.2587857 -2.0311147) to (19.359683 19.326792 22.616692)
run 2000
Per MPI rank memory allocation (min/avg/max) = 7.236 | 7.237 | 7.237 Mbytes
   Step          Temp          E_pair         E_mol          TotEng         Press     
     32000   305.23004     -5154.2511      0             -5131.565      -69820.471    
     33000   304.65696     -5153.4513      0             -5130.8078     -60697.648    
     34000   327.88042     -5153.985       0             -5129.6155     -59076.568    
Loop time of 4.47029 on 4 procs for 2000 steps with 576 atoms

Performance: 38.655 ns/day, 0.621 hours/ns, 447.399 timesteps/s
99.3% CPU use with 4 MPI tasks x 1 OpenMP threads

MPI task timing breakdown:
Section |  min time  |  avg time  |  max time  |%varavg| %total
---------------------------------------------------------------
Pair    | 4.0279     | 4.1538     | 4.2066     |   3.6 | 92.92
Bond    | 0.0001337  | 0.00015708 | 0.00017274 |   0.0 |  0.00
Neigh   | 0.041817   | 0.042492   | 0.043342   |   0.3 |  0.95
Comm    | 0.20153    | 0.25513    | 0.38135    |  14.5 |  5.71
Output  | 0.00045933 | 0.00046565 | 0.00048263 |   0.0 |  0.01
Modify  | 0.0088017  | 0.0091071  | 0.009305   |   0.2 |  0.20
Other   |            | 0.009149   |            |       |  0.20

Nlocal:            144 ave         145 max         143 min
Histogram: 1 0 0 0 0 2 0 0 0 1
Nghost:         2919.5 ave        2944 max        2875 min
Histogram: 1 0 0 0 0 0 0 1 1 1
Neighs:              0 ave           0 max           0 min
Histogram: 4 0 0 0 0 0 0 0 0 0
FullNghs:        57059 ave       57576 max       56486 min
Histogram: 1 0 0 0 1 0 1 0 0 1

Total # of neighbors = 228236
Ave neighs/atom = 396.24306
Ave special neighs/atom = 0
Neighbor list builds = 26
Dangerous builds = 0
next var
jump input.lammps loop
change_box all z scale 1.005 remap
Changing box ...
  orthogonal box = (1.2258943 1.2587857 -2.0927342) to (19.359683 19.326792 22.678312)
run 2000
Per MPI rank memory allocation (min/avg/max) = 7.236 | 7.237 | 7.237 Mbytes
   Step          Temp          E_pair         E_mol          TotEng         Press     
     34000   327.88042     -5150.9617      0             -5126.5922     -69345.682    
     35000   303.35821     -5151.274       0             -5128.727      -61493.309    
     36000   327.42561     -5150.0022      0             -5125.6664     -62722.261    
Loop time of 4.45037 on 4 procs for 2000 steps with 576 atoms

Performance: 38.828 ns/day, 0.618 hours/ns, 449.401 timesteps/s
99.2% CPU use with 4 MPI tasks x 1 OpenMP threads

MPI task timing breakdown:
Section |  min time  |  avg time  |  max time  |%varavg| %total
---------------------------------------------------------------
Pair    | 4.0147     | 4.1376     | 4.2113     |   3.7 | 92.97
Bond    | 0.000137   | 0.00015925 | 0.00017525 |   0.0 |  0.00
Neigh   | 0.042685   | 0.043361   | 0.044572   |   0.3 |  0.97
Comm    | 0.17782    | 0.25074    | 0.37335    |  14.9 |  5.63
Output  | 0.00046866 | 0.00047503 | 0.00049232 |   0.0 |  0.01
Modify  | 0.0084269  | 0.0089002  | 0.0092979  |   0.4 |  0.20
Other   |            | 0.009177   |            |       |  0.21

Nlocal:            144 ave         149 max         141 min
Histogram: 1 0 2 0 0 0 0 0 0 1
Nghost:         2921.5 ave        2950 max        2867 min
Histogram: 1 0 0 0 0 0 0 0 2 1
Neighs:              0 ave           0 max           0 min
Histogram: 4 0 0 0 0 0 0 0 0 0
FullNghs:        56722 ave       58899 max       55401 min
Histogram: 1 1 0 1 0 0 0 0 0 1

Total # of neighbors = 226888
Ave neighs/atom = 393.90278
Ave special neighs/atom = 0
Neighbor list builds = 27
Dangerous builds = 0
next var
jump input.lammps loop
change_box all z scale 1.005 remap
Changing box ...
  orthogonal box = (1.2258943 1.2587857 -2.1546618) to (19.359683 19.326792 22.74024)
run 2000
Per MPI rank memory allocation (min/avg/max) = 7.236 | 7.237 | 7.237 Mbytes
   Step          Temp          E_pair         E_mol          TotEng         Press     
     36000   327.42561     -5146.7662      0             -5122.4304     -72812.945    
     37000   304.61539     -5148.0668      0             -5125.4263     -61607.695    
     38000   307.62081     -5147.3759      0             -5124.5121     -61730.527    
Loop time of 4.4136 on 4 procs for 2000 steps with 576 atoms

Performance: 39.152 ns/day, 0.613 hours/ns, 453.145 timesteps/s
99.0% CPU use with 4 MPI tasks x 1 OpenMP threads

MPI task timing breakdown:
Section |  min time  |  avg time  |  max time  |%varavg| %total
---------------------------------------------------------------
Pair    | 3.9872     | 4.1153     | 4.1886     |   3.8 | 93.24
Bond    | 0.00013593 | 0.00015818 | 0.00017279 |   0.0 |  0.00
Neigh   | 0.037905   | 0.038838   | 0.03981    |   0.4 |  0.88
Comm    | 0.16656    | 0.2407     | 0.36921    |  15.7 |  5.45
Output  | 0.00046632 | 0.00047208 | 0.00048782 |   0.0 |  0.01
Modify  | 0.0087923  | 0.0090482  | 0.0092285  |   0.2 |  0.21
Other   |            | 0.009117   |            |       |  0.21

Nlocal:            144 ave         149 max         140 min
Histogram: 1 0 0 1 1 0 0 0 0 1
Nghost:        2911.25 ave        2939 max        2860 min
Histogram: 1 0 0 0 0 1 0 0 0 2
Neighs:              0 ave           0 max           0 min
Histogram: 4 0 0 0 0 0 0 0 0 0
FullNghs:      56461.5 ave       58594 max       54748 min
Histogram: 1 0 1 0 0 1 0 0 0 1

Total # of neighbors = 225846
Ave neighs/atom = 392.09375
Ave special neighs/atom = 0
Neighbor list builds = 24
Dangerous builds = 0
next var
jump input.lammps loop
change_box all z scale 1.005 remap
Changing box ...
  orthogonal box = (1.2258943 1.2587857 -2.2168991) to (19.359683 19.326792 22.802477)
run 2000
Per MPI rank memory allocation (min/avg/max) = 7.236 | 7.237 | 7.237 Mbytes
   Step          Temp          E_pair         E_mol          TotEng         Press     
     38000   307.62081     -5144.0279      0             -5121.1641     -71762.981    
     39000   297.42537     -5146.4222      0             -5124.3162     -66198.216    
     40000   291.80597     -5146.9956      0             -5125.3072     -67893.976    
Loop time of 4.40614 on 4 procs for 2000 steps with 576 atoms

Performance: 39.218 ns/day, 0.612 hours/ns, 453.912 timesteps/s
99.1% CPU use with 4 MPI tasks x 1 OpenMP threads

MPI task timing breakdown:
Section |  min time  |  avg time  |  max time  |%varavg| %total
---------------------------------------------------------------
Pair    | 3.9774     | 4.0943     | 4.1823     |   4.2 | 92.92
Bond    | 0.00013399 | 0.00015712 | 0.00017048 |   0.0 |  0.00
Neigh   | 0.042176   | 0.043489   | 0.044503   |   0.4 |  0.99
Comm    | 0.16188    | 0.24972    | 0.36622    |  16.9 |  5.67
Output  | 0.00045719 | 0.00046333 | 0.00048021 |   0.0 |  0.01
Modify  | 0.0083817  | 0.0089022  | 0.0093865  |   0.5 |  0.20
Other   |            | 0.009106   |            |       |  0.21

Nlocal:            144 ave         151 max         139 min
Histogram: 1 0 1 0 1 0 0 0 0 1
Nghost:        2881.75 ave        2901 max        2834 min
Histogram: 1 0 0 0 0 0 0 0 0 3
Neighs:              0 ave           0 max           0 min
Histogram: 4 0 0 0 0 0 0 0 0 0
FullNghs:      56151.5 ave       59091 max       54004 min
Histogram: 1 0 0 2 0 0 0 0 0 1

Total # of neighbors = 224606
Ave neighs/atom = 389.94097
Ave special neighs/atom = 0
Neighbor list builds = 27
Dangerous builds = 0
next var
jump input.lammps loop
change_box all z scale 1.005 remap
Changing box ...
  orthogonal box = (1.2258943 1.2587857 -2.2794475) to (19.359683 19.326792 22.865025)
run 2000
Per MPI rank memory allocation (min/avg/max) = 7.236 | 7.237 | 7.237 Mbytes
   Step          Temp          E_pair         E_mol          TotEng         Press     
     40000   291.80597     -5143.5633      0             -5121.875      -77713.406    
     41000   291.58091     -5143.7219      0             -5122.0502     -72479.701    
     42000   297.76286     -5141.9476      0             -5119.8165     -69779.406    
Loop time of 4.3907 on 4 procs for 2000 steps with 576 atoms

Performance: 39.356 ns/day, 0.610 hours/ns, 455.508 timesteps/s
99.7% CPU use with 4 MPI tasks x 1 OpenMP threads

MPI task timing breakdown:
Section |  min time  |  avg time  |  max time  |%varavg| %total
---------------------------------------------------------------
Pair    | 3.9436     | 4.0753     | 4.1918     |   4.8 | 92.82
Bond    | 0.00013367 | 0.00015711 | 0.0001719  |   0.0 |  0.00
Neigh   | 0.043591   | 0.044918   | 0.045874   |   0.4 |  1.02
Comm    | 0.13561    | 0.25203    | 0.38328    |  19.1 |  5.74
Output  | 0.00047424 | 0.00047953 | 0.00049476 |   0.0 |  0.01
Modify  | 0.0082266  | 0.0088271  | 0.0093947  |   0.6 |  0.20
Other   |            | 0.009012   |            |       |  0.21

Nlocal:            144 ave         148 max         139 min
Histogram: 1 0 0 1 0 0 0 0 1 1
Nghost:        2876.25 ave        2905 max        2817 min
Histogram: 1 0 0 0 0 0 0 1 0 2
Neighs:              0 ave           0 max           0 min
Histogram: 4 0 0 0 0 0 0 0 0 0
FullNghs:      55885.5 ave       57371 max       53671 min
Histogram: 1 0 0 0 1 0 0 0 0 2

Total # of neighbors = 223542
Ave neighs/atom = 388.09375
Ave special neighs/atom = 0
Neighbor list builds = 28
Dangerous builds = 0
next var
jump input.lammps loop
change_box all z scale 1.005 remap
Changing box ...
  orthogonal box = (1.2258943 1.2587857 -2.3423087) to (19.359683 19.326792 22.927886)
run 2000
Per MPI rank memory allocation (min/avg/max) = 7.236 | 7.237 | 7.237 Mbytes
   Step          Temp          E_pair         E_mol          TotEng         Press     
     42000   297.76286     -5138.4333      0             -5116.3022     -79409.443    
     43000   295.79586     -5140.188       0             -5118.2031     -73990.381    
     44000   295.53739     -5141.3709      0             -5119.4052     -70186.242    
Loop time of 4.39588 on 4 procs for 2000 steps with 576 atoms

Performance: 39.310 ns/day, 0.611 hours/ns, 454.971 timesteps/s
99.7% CPU use with 4 MPI tasks x 1 OpenMP threads

MPI task timing breakdown:
Section |  min time  |  avg time  |  max time  |%varavg| %total
---------------------------------------------------------------
Pair    | 3.9405     | 4.0587     | 4.1461     |   3.8 | 92.33
Bond    | 0.00013533 | 0.00015824 | 0.00017628 |   0.0 |  0.00
Neigh   | 0.043819   | 0.044754   | 0.046102   |   0.4 |  1.02
Comm    | 0.18542    | 0.27394    | 0.39189    |  14.8 |  6.23
Output  | 0.00042427 | 0.00042924 | 0.00044036 |   0.0 |  0.01
Modify  | 0.0084946  | 0.0088957  | 0.0092099  |   0.3 |  0.20
Other   |            | 0.008984   |            |       |  0.20

Nlocal:            144 ave         150 max         137 min
Histogram: 1 0 0 0 0 1 1 0 0 1
Nghost:           2857 ave        2882 max        2803 min
Histogram: 1 0 0 0 0 0 0 0 1 2
Neighs:              0 ave           0 max           0 min
Histogram: 4 0 0 0 0 0 0 0 0 0
FullNghs:      55612.5 ave       58298 max       52610 min
Histogram: 1 0 0 0 0 2 0 0 0 1

Total # of neighbors = 222450
Ave neighs/atom = 386.19792
Ave special neighs/atom = 0
Neighbor list builds = 28
Dangerous builds = 0
next var
jump input.lammps loop
change_box all z scale 1.005 remap
Changing box ...
  orthogonal box = (1.2258943 1.2587857 -2.4054842) to (19.359683 19.326792 22.991062)
run 2000
Per MPI rank memory allocation (min/avg/max) = 7.236 | 7.237 | 7.237 Mbytes
   Step          Temp          E_pair         E_mol          TotEng         Press     
     44000   295.53739     -5137.7051      0             -5115.7394     -79773.953    
     45000   317.17377     -5136.9563      0             -5113.3825     -73898.582    
     46000   292.82559     -5138.0864      0             -5116.3223     -72861.055    
Loop time of 4.37507 on 4 procs for 2000 steps with 576 atoms

Performance: 39.497 ns/day, 0.608 hours/ns, 457.136 timesteps/s
98.9% CPU use with 4 MPI tasks x 1 OpenMP threads

MPI task timing breakdown:
Section |  min time  |  avg time  |  max time  |%varavg| %total
---------------------------------------------------------------
Pair    | 3.9347     | 4.0371     | 4.1283     |   3.8 | 92.27
Bond    | 0.00013936 | 0.00015743 | 0.000173   |   0.0 |  0.00
Neigh   | 0.045937   | 0.047678   | 0.04939    |   0.6 |  1.09
Comm    | 0.17907    | 0.27187    | 0.37376    |  14.7 |  6.21
Output  | 0.00043231 | 0.00043747 | 0.00044987 |   0.0 |  0.01
Modify  | 0.0085125  | 0.00891    | 0.0091919  |   0.3 |  0.20
Other   |            | 0.008943   |            |       |  0.20

Nlocal:            144 ave         148 max         135 min
Histogram: 1 0 0 0 0 0 0 1 0 2
Nghost:        2860.75 ave        2884 max        2808 min
Histogram: 1 0 0 0 0 0 0 1 0 2
Neighs:              0 ave           0 max           0 min
Histogram: 4 0 0 0 0 0 0 0 0 0
FullNghs:        55355 ave       57323 max       51507 min
Histogram: 1 0 0 0 0 0 0 1 1 1

Total # of neighbors = 221420
Ave neighs/atom = 384.40972
Ave special neighs/atom = 0
Neighbor list builds = 30
Dangerous builds = 0
next var
jump input.lammps loop
change_box all z scale 1.005 remap
Changing box ...
  orthogonal box = (1.2258943 1.2587857 -2.4689756) to (19.359683 19.326792 23.054553)
run 2000
Per MPI rank memory allocation (min/avg/max) = 7.236 | 7.237 | 7.237 Mbytes
   Step          Temp          E_pair         E_mol          TotEng         Press     
     46000   292.82559     -5134.3211      0             -5112.5569     -82299.629    
     47000   311.16605     -5133.996       0             -5110.8687     -75167.057    
     48000   278.90064     -5133.899       0             -5113.1699     -75275.543    
Loop time of 4.39038 on 4 procs for 2000 steps with 576 atoms

Performance: 39.359 ns/day, 0.610 hours/ns, 455.541 timesteps/s
99.5% CPU use with 4 MPI tasks x 1 OpenMP threads

MPI task timing breakdown:
Section |  min time  |  avg time  |  max time  |%varavg| %total
---------------------------------------------------------------
Pair    | 3.9021     | 4.026      | 4.1346     |   4.5 | 91.70
Bond    | 0.00014188 | 0.00015699 | 0.00017049 |   0.0 |  0.00
Neigh   | 0.047075   | 0.048299   | 0.049597   |   0.5 |  1.10
Comm    | 0.18753    | 0.29727    | 0.42199    |  16.5 |  6.77
Output  | 0.00043237 | 0.00043814 | 0.00044886 |   0.0 |  0.01
Modify  | 0.0087383  | 0.0092235  | 0.0096402  |   0.4 |  0.21
Other   |            | 0.009003   |            |       |  0.21

Nlocal:            144 ave         150 max         135 min
Histogram: 1 0 0 0 0 1 0 0 1 1
Nghost:         2841.5 ave        2869 max        2790 min
Histogram: 1 0 0 0 0 0 1 0 0 2
Neighs:              0 ave           0 max           0 min
Histogram: 4 0 0 0 0 0 0 0 0 0
FullNghs:        55105 ave       57875 max       51214 min
Histogram: 1 0 0 0 0 1 0 1 0 1

Total # of neighbors = 220420
Ave neighs/atom = 382.67361
Ave special neighs/atom = 0
Neighbor list builds = 30
Dangerous builds = 0
next var
jump input.lammps loop
change_box all z scale 1.005 remap
Changing box ...
  orthogonal box = (1.2258943 1.2587857 -2.5327844) to (19.359683 19.326792 23.118362)
run 2000
Per MPI rank memory allocation (min/avg/max) = 7.236 | 7.237 | 7.238 Mbytes
   Step          Temp          E_pair         E_mol          TotEng         Press     
     48000   278.90064     -5129.9655      0             -5109.2363     -84576.156    
     49000   308.23467     -5130.6571      0             -5107.7477     -75393.373    
     50000   288.96282     -5131.0231      0             -5109.546      -81559.466    
Loop time of 4.37751 on 4 procs for 2000 steps with 576 atoms

Performance: 39.474 ns/day, 0.608 hours/ns, 456.880 timesteps/s
99.5% CPU use with 4 MPI tasks x 1 OpenMP threads

MPI task timing breakdown:
Section |  min time  |  avg time  |  max time  |%varavg| %total
---------------------------------------------------------------
Pair    | 3.8942     | 4.0117     | 4.1456     |   5.0 | 91.64
Bond    | 0.00013487 | 0.00015539 | 0.00016519 |   0.0 |  0.00
Neigh   | 0.043671   | 0.045074   | 0.047202   |   0.6 |  1.03
Comm    | 0.16632    | 0.30201    | 0.42052    |  18.3 |  6.90
Output  | 0.00041949 | 0.00042402 | 0.00043623 |   0.0 |  0.01
Modify  | 0.0086927  | 0.0091712  | 0.0095483  |   0.4 |  0.21
Other   |            | 0.008948   |            |       |  0.20

Nlocal:            144 ave         152 max         136 min
Histogram: 1 0 0 0 0 2 0 0 0 1
Nghost:           2841 ave        2868 max        2784 min
Histogram: 1 0 0 0 0 0 0 1 0 2
Neighs:              0 ave           0 max           0 min
Histogram: 4 0 0 0 0 0 0 0 0 0
FullNghs:        54832 ave       58330 max       51344 min
Histogram: 1 0 0 0 1 1 0 0 0 1

Total # of neighbors = 219328
Ave neighs/atom = 380.77778
Ave special neighs/atom = 0
Neighbor list builds = 28
Dangerous builds = 0
next var
jump input.lammps loop
change_box all z scale 1.005 remap
Changing box ...
  orthogonal box = (1.2258943 1.2587857 -2.5969122) to (19.359683 19.326792 23.18249)
run 2000
Per MPI rank memory allocation (min/avg/max) = 7.236 | 7.237 | 7.238 Mbytes
   Step          Temp          E_pair         E_mol          TotEng         Press     
     50000   288.96282     -5126.8485      0             -5105.3715     -90478.263    
     51000   297.82598     -5128.2635      0             -5106.1277     -75408.401    
     52000   314.38593     -5129.9995      0             -5106.6329     -69309.223    
Loop time of 4.4358 on 4 procs for 2000 steps with 576 atoms

Performance: 38.956 ns/day, 0.616 hours/ns, 450.877 timesteps/s
99.5% CPU use with 4 MPI tasks x 1 OpenMP threads

MPI task timing breakdown:
Section |  min time  |  avg time  |  max time  |%varavg| %total
---------------------------------------------------------------
Pair    | 3.7362     | 3.9879     | 4.2606     |  10.0 | 89.90
Bond    | 0.00013544 | 0.00015653 | 0.00017154 |   0.0 |  0.00
Neigh   | 0.044292   | 0.047463   | 0.050187   |   1.0 |  1.07
Comm    | 0.10724    | 0.3817     | 0.63555    |  32.6 |  8.61
Output  | 0.00042552 | 0.00043069 | 0.00044089 |   0.0 |  0.01
Modify  | 0.0081151  | 0.0091591  | 0.010205   |   0.9 |  0.21
Other   |            | 0.008949   |            |       |  0.20

Nlocal:            144 ave         153 max         135 min
Histogram: 1 0 0 1 0 0 1 0 0 1
Nghost:         2803.5 ave        2836 max        2746 min
Histogram: 1 0 0 0 0 1 0 0 0 2
Neighs:              0 ave           0 max           0 min
Histogram: 4 0 0 0 0 0 0 0 0 0
FullNghs:      54541.5 ave       58636 max       50447 min
Histogram: 1 0 1 0 0 0 0 1 0 1

Total # of neighbors = 218166
Ave neighs/atom = 378.76042
Ave special neighs/atom = 0
Neighbor list builds = 30
Dangerous builds = 0
next var
jump input.lammps loop
change_box all z scale 1.005 remap
Changing box ...
  orthogonal box = (1.2258943 1.2587857 -2.6613608) to (19.359683 19.326792 23.246938)
run 2000
Per MPI rank memory allocation (min/avg/max) = 7.236 | 7.237 | 7.238 Mbytes
   Step          Temp          E_pair         E_mol          TotEng         Press     
     52000   314.38593     -5126.4387      0             -5103.0721     -78722.992    
     53000   296.43034     -5126.3401      0             -5104.308      -69518.171    
     54000   306.30869     -5129.5179      0             -5106.7516     -73058.872    
Loop time of 4.49071 on 4 procs for 2000 steps with 576 atoms

Performance: 38.479 ns/day, 0.624 hours/ns, 445.364 timesteps/s
99.1% CPU use with 4 MPI tasks x 1 OpenMP threads

MPI task timing breakdown:
Section |  min time  |  avg time  |  max time  |%varavg| %total
---------------------------------------------------------------
Pair    | 3.6774     | 3.9824     | 4.3162     |  12.6 | 88.68
Bond    | 0.00013689 | 0.00015509 | 0.00016755 |   0.0 |  0.00
Neigh   | 0.047044   | 0.050617   | 0.054132   |   1.1 |  1.13
Comm    | 0.10262    | 0.43871    | 0.74591    |  38.2 |  9.77
Output  | 0.00043628 | 0.00044168 | 0.00045276 |   0.0 |  0.01
Modify  | 0.0082796  | 0.0094551  | 0.010617   |   1.1 |  0.21
Other   |            | 0.008976   |            |       |  0.20

Nlocal:            144 ave         156 max         132 min
Histogram: 1 0 0 0 1 1 0 0 0 1
Nghost:        2808.25 ave        2853 max        2735 min
Histogram: 1 0 0 0 0 1 0 0 0 2
Neighs:              0 ave           0 max           0 min
Histogram: 4 0 0 0 0 0 0 0 0 0
FullNghs:        54257 ave       59612 max       48947 min
Histogram: 1 0 0 1 0 0 1 0 0 1

Total # of neighbors = 217028
Ave neighs/atom = 376.78472
Ave special neighs/atom = 0
Neighbor list builds = 32
Dangerous builds = 0
next var
jump input.lammps loop
change_box all z scale 1.005 remap
Changing box ...
  orthogonal box = (1.2258943 1.2587857 -2.7261315) to (19.359683 19.326792 23.311709)
run 2000
Per MPI rank memory allocation (min/avg/max) = 7.236 | 7.237 | 7.238 Mbytes
   Step          Temp          E_pair         E_mol          TotEng         Press     
     54000   306.30869     -5125.8675      0             -5103.1012     -82333.923    
     55000   295.34489     -5124.8863      0             -5102.9349     -75860.745    
     56000   283.68424     -5126.6108      0             -5105.5261     -70478.092    
Loop time of 4.48916 on 4 procs for 2000 steps with 576 atoms

Performance: 38.493 ns/day, 0.623 hours/ns, 445.517 timesteps/s
99.3% CPU use with 4 MPI tasks x 1 OpenMP threads

MPI task timing breakdown:
Section |  min time  |  avg time  |  max time  |%varavg| %total
---------------------------------------------------------------
Pair    | 3.6533     | 3.9596     | 4.3309     |  13.8 | 88.20
Bond    | 0.00013812 | 0.00015342 | 0.00016182 |   0.0 |  0.00
Neigh   | 0.036498   | 0.039348   | 0.042336   |   1.1 |  0.88
Comm    | 0.098233   | 0.47125    | 0.77898    |  40.2 | 10.50
Output  | 0.0004216  | 0.0004262  | 0.00043689 |   0.0 |  0.01
Modify  | 0.0082321  | 0.009472   | 0.010665   |   1.1 |  0.21
Other   |            | 0.008948   |            |       |  0.20

Nlocal:            144 ave         156 max         133 min
Histogram: 1 0 0 1 0 1 0 0 0 1
Nghost:           2797 ave        2851 max        2713 min
Histogram: 1 0 0 0 0 0 1 1 0 1
Neighs:              0 ave           0 max           0 min
Histogram: 4 0 0 0 0 0 0 0 0 0
FullNghs:      53981.5 ave       59411 max       48990 min
Histogram: 1 0 0 1 0 1 0 0 0 1

Total # of neighbors = 215926
Ave neighs/atom = 374.87153
Ave special neighs/atom = 0
Neighbor list builds = 25
Dangerous builds = 0
next var
jump input.lammps loop
change_box all z scale 1.005 remap
Changing box ...
  orthogonal box = (1.2258943 1.2587857 -2.7912261) to (19.359683 19.326792 23.376804)
run 2000
Per MPI rank memory allocation (min/avg/max) = 7.236 | 7.237 | 7.238 Mbytes
   Step          Temp          E_pair         E_mol          TotEng         Press     
     56000   283.68424     -5122.957       0             -5101.8723     -79691.218    
     57000   303.01443     -5121.611       0             -5099.0896     -74398.675    
     58000   291.60644     -5123.5256      0             -5101.8521     -75343.398    
Loop time of 4.49069 on 4 procs for 2000 steps with 576 atoms

Performance: 38.480 ns/day, 0.624 hours/ns, 445.366 timesteps/s
99.7% CPU use with 4 MPI tasks x 1 OpenMP threads

MPI task timing breakdown:
Section |  min time  |  avg time  |  max time  |%varavg| %total
---------------------------------------------------------------
Pair    | 3.6122     | 3.9438     | 4.3211     |  14.6 | 87.82
Bond    | 0.00013709 | 0.00015476 | 0.00016564 |   0.0 |  0.00
Neigh   | 0.04078    | 0.044636   | 0.049347   |   1.5 |  0.99
Comm    | 0.10244    | 0.48314    | 0.81728    |  41.9 | 10.76
Output  | 0.00041955 | 0.00042488 | 0.00043762 |   0.0 |  0.01
Modify  | 0.008261   | 0.0094829  | 0.01071    |   1.1 |  0.21
Other   |            | 0.009041   |            |       |  0.20

Nlocal:            144 ave         158 max         132 min
Histogram: 1 0 0 1 1 0 0 0 0 1
Nghost:           2776 ave        2832 max        2691 min
Histogram: 1 0 0 0 0 1 0 0 0 2
Neighs:              0 ave           0 max           0 min
Histogram: 4 0 0 0 0 0 0 0 0 0
FullNghs:        53793 ave       60032 max       48393 min
Histogram: 1 0 0 1 0 1 0 0 0 1

Total # of neighbors = 215172
Ave neighs/atom = 373.5625
Ave special neighs/atom = 0
Neighbor list builds = 28
Dangerous builds = 0
next var
jump input.lammps loop
change_box all z scale 1.005 remap
Changing box ...
  orthogonal box = (1.2258943 1.2587857 -2.8566462) to (19.359683 19.326792 23.442224)
run 2000
Per MPI rank memory allocation (min/avg/max) = 7.236 | 7.237 | 7.238 Mbytes
   Step          Temp          E_pair         E_mol          TotEng         Press     
     58000   291.60644     -5119.703       0             -5098.0295     -84345.363    
     59000   303.03761     -5119.5756      0             -5097.0525     -69949.377    
     60000   306.62793     -5121.6428      0             -5098.8528     -66001.262    
Loop time of 4.54667 on 4 procs for 2000 steps with 576 atoms

Performance: 38.006 ns/day, 0.631 hours/ns, 439.883 timesteps/s
99.1% CPU use with 4 MPI tasks x 1 OpenMP threads

MPI task timing breakdown:
Section |  min time  |  avg time  |  max time  |%varavg| %total
---------------------------------------------------------------
Pair    | 3.6162     | 3.9409     | 4.3705     |  16.7 | 86.68
Bond    | 0.00014547 | 0.00015581 | 0.00016445 |   0.0 |  0.00
Neigh   | 0.047947   | 0.051753   | 0.05606    |   1.3 |  1.14
Comm    | 0.10224    | 0.53459    | 0.86164    |  45.4 | 11.76
Output  | 0.00043747 | 0.00044347 | 0.00045753 |   0.0 |  0.01
Modify  | 0.0084147  | 0.0097799  | 0.011095   |   1.2 |  0.22
Other   |            | 0.009014   |            |       |  0.20

Nlocal:            144 ave         159 max         129 min
Histogram: 1 0 0 1 0 0 1 0 0 1
Nghost:        2782.75 ave        2850 max        2698 min
Histogram: 1 0 1 0 0 0 0 0 0 2
Neighs:              0 ave           0 max           0 min
Histogram: 4 0 0 0 0 0 0 0 0 0
FullNghs:      53523.5 ave       60559 max       46530 min
Histogram: 1 0 1 0 0 0 0 1 0 1

Total # of neighbors = 214094
Ave neighs/atom = 371.69097
Ave special neighs/atom = 0
Neighbor list builds = 33
Dangerous builds = 0
next var
jump input.lammps loop
change_box all z scale 1.005 remap
Changing box ...
  orthogonal box = (1.2258943 1.2587857 -2.9223934) to (19.359683 19.326792 23.507971)
run 2000
Per MPI rank memory allocation (min/avg/max) = 7.236 | 7.237 | 7.238 Mbytes
   Step          Temp          E_pair         E_mol          TotEng         Press     
     60000   306.62793     -5118.1862      0             -5095.3962     -75242.8      
     61000   285.78182     -5118.6508      0             -5097.4102     -71565.888    
     62000   306.58315     -5117.8348      0             -5095.0482     -67237.124    
Loop time of 4.5696 on 4 procs for 2000 steps with 576 atoms

Performance: 37.815 ns/day, 0.635 hours/ns, 437.675 timesteps/s
99.3% CPU use with 4 MPI tasks x 1 OpenMP threads

MPI task timing breakdown:
Section |  min time  |  avg time  |  max time  |%varavg| %total
---------------------------------------------------------------
Pair    | 3.5398     | 3.924      | 4.3904     |  19.0 | 85.87
Bond    | 0.00013605 | 0.00015392 | 0.00016761 |   0.0 |  0.00
Neigh   | 0.046153   | 0.050666   | 0.055637   |   1.6 |  1.11
Comm    | 0.10563    | 0.57548    | 0.96272    |  49.9 | 12.59
Output  | 0.00047158 | 0.00047717 | 0.00048802 |   0.0 |  0.01
Modify  | 0.0083742  | 0.0097637  | 0.011076   |   1.3 |  0.21
Other   |            | 0.009049   |            |       |  0.20

Nlocal:            144 ave         156 max         131 min
Histogram: 1 0 0 0 1 0 1 0 0 1
Nghost:        2770.75 ave        2837 max        2688 min
Histogram: 1 0 1 0 0 0 0 0 0 2
Neighs:              0 ave           0 max           0 min
Histogram: 4 0 0 0 0 0 0 0 0 0
FullNghs:        53239 ave       59045 max       47116 min
Histogram: 1 0 0 1 0 0 0 1 0 1

Total # of neighbors = 212956
Ave neighs/atom = 369.71528
Ave special neighs/atom = 0
Neighbor list builds = 32
Dangerous builds = 0
next var
jump input.lammps loop
change_box all z scale 1.005 remap
Changing box ...
  orthogonal box = (1.2258943 1.2587857 -2.9884693) to (19.359683 19.326792 23.574047)
run 2000
Per MPI rank memory allocation (min/avg/max) = 7.236 | 7.237 | 7.238 Mbytes
   Step          Temp          E_pair         E_mol          TotEng         Press     
     62000   306.58315     -5114.3801      0             -5091.5934     -76503.222    
     63000   292.58275     -5113.6953      0             -5091.9492     -67969.619    
     64000   299.63457     -5112.6505      0             -5090.3802     -73564.693    
Loop time of 4.52784 on 4 procs for 2000 steps with 576 atoms

Performance: 38.164 ns/day, 0.629 hours/ns, 441.711 timesteps/s
99.4% CPU use with 4 MPI tasks x 1 OpenMP threads

MPI task timing breakdown:
Section |  min time  |  avg time  |  max time  |%varavg| %total
---------------------------------------------------------------
Pair    | 3.5136     | 3.9032     | 4.2789     |  18.4 | 86.20
Bond    | 0.00013776 | 0.00015586 | 0.00017624 |   0.0 |  0.00
Neigh   | 0.044628   | 0.048924   | 0.05317    |   1.5 |  1.08
Comm    | 0.17789    | 0.55629    | 0.94887    |  49.0 | 12.29
Output  | 0.00042838 | 0.00043466 | 0.0004465  |   0.0 |  0.01
Modify  | 0.008547   | 0.0098235  | 0.011153   |   1.3 |  0.22
Other   |            | 0.008992   |            |       |  0.20

Nlocal:            144 ave         157 max         132 min
Histogram: 1 0 1 0 0 0 1 0 0 1
Nghost:        2765.25 ave        2825 max        2676 min
Histogram: 1 0 0 0 1 0 0 0 0 2
Neighs:              0 ave           0 max           0 min
Histogram: 4 0 0 0 0 0 0 0 0 0
FullNghs:      52995.5 ave       59216 max       47303 min
Histogram: 1 0 1 0 0 0 0 1 0 1

Total # of neighbors = 211982
Ave neighs/atom = 368.02431
Ave special neighs/atom = 0
Neighbor list builds = 31
Dangerous builds = 0
next var
jump input.lammps loop
change_box all z scale 1.005 remap
Changing box ...
  orthogonal box = (1.2258943 1.2587857 -3.0548756) to (19.359683 19.326792 23.640453)
run 2000
Per MPI rank memory allocation (min/avg/max) = 7.236 | 7.237 | 7.238 Mbytes
   Step          Temp          E_pair         E_mol          TotEng         Press     
     64000   299.63457     -5108.7786      0             -5086.5083     -82395.413    
     65000   316.98447     -5111.9229      0             -5088.3632     -67716.712    
     66000   294.79138     -5111.5111      0             -5089.6009     -71157.9      
Loop time of 4.53723 on 4 procs for 2000 steps with 576 atoms

Performance: 38.085 ns/day, 0.630 hours/ns, 440.798 timesteps/s
99.6% CPU use with 4 MPI tasks x 1 OpenMP threads

MPI task timing breakdown:
Section |  min time  |  avg time  |  max time  |%varavg| %total
---------------------------------------------------------------
Pair    | 3.443      | 3.8834     | 4.3075     |  19.5 | 85.59
Bond    | 0.00013765 | 0.00015583 | 0.00017445 |   0.0 |  0.00
Neigh   | 0.04382    | 0.048756   | 0.053393   |   1.7 |  1.07
Comm    | 0.15835    | 0.5855     | 1.0295     |  50.4 | 12.90
Output  | 0.00042158 | 0.00042665 | 0.00043765 |   0.0 |  0.01
Modify  | 0.0086876  | 0.010029   | 0.011408   |   1.3 |  0.22
Other   |            | 0.008951   |            |       |  0.20

Nlocal:            144 ave         159 max         127 min
Histogram: 1 0 0 0 1 0 0 1 0 1
Nghost:         2748.5 ave        2802 max        2667 min
Histogram: 1 0 0 0 1 0 0 0 0 2
Neighs:              0 ave           0 max           0 min
Histogram: 4 0 0 0 0 0 0 0 0 0
FullNghs:        52724 ave       59791 max       44943 min
Histogram: 1 0 0 1 0 0 0 1 0 1

Total # of neighbors = 210896
Ave neighs/atom = 366.13889
Ave special neighs/atom = 0
Neighbor list builds = 31
Dangerous builds = 0
next var
jump input.lammps loop
change_box all z scale 1.005 remap
Changing box ...
  orthogonal box = (1.2258943 1.2587857 -3.1216139) to (19.359683 19.326792 23.707192)
run 2000
Per MPI rank memory allocation (min/avg/max) = 7.236 | 7.237 | 7.238 Mbytes
   Step          Temp          E_pair         E_mol          TotEng         Press     
     66000   294.79138     -5107.7689      0             -5085.8587     -79898.403    
     67000   294.43615     -5109.2716      0             -5087.3878     -74326.517    
     68000   321.29818     -5109.0259      0             -5085.1455     -71207.969    
Loop time of 4.57901 on 4 procs for 2000 steps with 576 atoms

Performance: 37.737 ns/day, 0.636 hours/ns, 436.776 timesteps/s
99.4% CPU use with 4 MPI tasks x 1 OpenMP threads

MPI task timing breakdown:
Section |  min time  |  avg time  |  max time  |%varavg| %total
---------------------------------------------------------------
Pair    | 3.3818     | 3.8751     | 4.3427     |  20.3 | 84.63
Bond    | 0.00014104 | 0.00015422 | 0.00017351 |   0.0 |  0.00
Neigh   | 0.047491   | 0.053418   | 0.059315   |   1.9 |  1.17
Comm    | 0.15909    | 0.63114    | 1.1291     |  50.5 | 13.78
Output  | 0.00041613 | 0.00042071 | 0.00043091 |   0.0 |  0.01
Modify  | 0.0086077  | 0.0098281  | 0.011098   |   1.1 |  0.21
Other   |            | 0.008956   |            |       |  0.20

Nlocal:            144 ave         160 max         128 min
Histogram: 1 0 1 0 0 0 0 1 0 1
Nghost:           2748 ave        2819 max        2665 min
Histogram: 1 0 1 0 0 0 0 0 0 2
Neighs:              0 ave           0 max           0 min
Histogram: 4 0 0 0 0 0 0 0 0 0
FullNghs:        52455 ave       59989 max       44850 min
Histogram: 1 0 1 0 0 0 0 1 0 1

Total # of neighbors = 209820
Ave neighs/atom = 364.27083
Ave special neighs/atom = 0
Neighbor list builds = 34
Dangerous builds = 0
next var
jump input.lammps loop
change_box all z scale 1.005 remap
Changing box ...
  orthogonal box = (1.2258943 1.2587857 -3.1886859) to (19.359683 19.326792 23.774264)
run 2000
Per MPI rank memory allocation (min/avg/max) = 7.236 | 7.237 | 7.238 Mbytes
   Step          Temp          E_pair         E_mol          TotEng         Press     
     68000   321.29818     -5105.3562      0             -5081.4758     -80033.633    
     69000   311.14462     -5105.3105      0             -5082.1848     -71947.53     
     70000   301.34019     -5107.1171      0             -5084.7202     -71046.022    
Loop time of 4.60861 on 4 procs for 2000 steps with 576 atoms

Performance: 37.495 ns/day, 0.640 hours/ns, 433.970 timesteps/s
99.2% CPU use with 4 MPI tasks x 1 OpenMP threads

MPI task timing breakdown:
Section |  min time  |  avg time  |  max time  |%varavg| %total
---------------------------------------------------------------
Pair    | 3.3026     | 3.8653     | 4.3677     |  21.9 | 83.87
Bond    | 0.00013947 | 0.00015591 | 0.00017512 |   0.0 |  0.00
Neigh   | 0.045243   | 0.051663   | 0.05748    |   1.9 |  1.12
Comm    | 0.16541    | 0.67214    | 1.24       |  52.9 | 14.58
Output  | 0.00042544 | 0.00043083 | 0.00044198 |   0.0 |  0.01
Modify  | 0.0086941  | 0.0099384  | 0.011226   |   1.1 |  0.22
Other   |            | 0.009004   |            |       |  0.20

Nlocal:            144 ave         161 max         125 min
Histogram: 1 0 0 1 0 0 0 1 0 1
Nghost:           2727 ave        2798 max        2637 min
Histogram: 1 0 0 1 0 0 0 0 0 2
Neighs:              0 ave           0 max           0 min
Histogram: 4 0 0 0 0 0 0 0 0 0
FullNghs:      52214.5 ave       60237 max       43584 min
Histogram: 1 0 1 0 0 0 0 1 0 1

Total # of neighbors = 208858
Ave neighs/atom = 362.60069
Ave special neighs/atom = 0
Neighbor list builds = 33
Dangerous builds = 0
next var
jump input.lammps loop
change_box all z scale 1.005 remap
Changing box ...
  orthogonal box = (1.2258943 1.2587857 -3.2560933) to (19.359683 19.326792 23.841671)
run 2000
Per MPI rank memory allocation (min/avg/max) = 7.236 | 7.237 | 7.238 Mbytes
   Step          Temp          E_pair         E_mol          TotEng         Press     
     70000   301.34019     -5103.486       0             -5081.089      -79857.79     
     71000   300.77988     -5105.9778      0             -5083.6225     -68510.627    
     72000   310.65909     -5105.0738      0             -5081.9842     -68584.29     
Loop time of 4.58506 on 4 procs for 2000 steps with 576 atoms

Performance: 37.688 ns/day, 0.637 hours/ns, 436.199 timesteps/s
99.2% CPU use with 4 MPI tasks x 1 OpenMP threads

MPI task timing breakdown:
Section |  min time  |  avg time  |  max time  |%varavg| %total
---------------------------------------------------------------
Pair    | 3.2773     | 3.8399     | 4.3618     |  23.2 | 83.75
Bond    | 0.00014223 | 0.00015456 | 0.00017283 |   0.0 |  0.00
Neigh   | 0.045022   | 0.051491   | 0.057085   |   1.9 |  1.12
Comm    | 0.14834    | 0.67429    | 1.2422     |  55.7 | 14.71
Output  | 0.00043569 | 0.00044109 | 0.00045313 |   0.0 |  0.01
Modify  | 0.0086344  | 0.0098145  | 0.011046   |   1.1 |  0.21
Other   |            | 0.008923   |            |       |  0.19

Nlocal:            144 ave         159 max         127 min
Histogram: 1 0 0 1 0 0 0 1 0 1
Nghost:         2721.5 ave        2804 max        2620 min
Histogram: 1 0 1 0 0 0 0 0 0 2
Neighs:              0 ave           0 max           0 min
Histogram: 4 0 0 0 0 0 0 0 0 0
FullNghs:      52047.5 ave       59430 max       44032 min
Histogram: 1 0 1 0 0 0 0 0 1 1

Total # of neighbors = 208190
Ave neighs/atom = 361.44097
Ave special neighs/atom = 0
Neighbor list builds = 33
Dangerous builds = 0
next var
jump input.lammps loop
change_box all z scale 1.005 remap
Changing box ...
  orthogonal box = (1.2258943 1.2587857 -3.3238377) to (19.359683 19.326792 23.909415)
run 2000
Per MPI rank memory allocation (min/avg/max) = 7.236 | 7.237 | 7.238 Mbytes
   Step          Temp          E_pair         E_mol          TotEng         Press     
     72000   310.65909     -5101.6108      0             -5078.5212     -77409.732    
     73000   308.44148     -5102.0263      0             -5079.1015     -79746.47     
     74000   296.51848     -5101.5746      0             -5079.536      -70943.733    
Loop time of 4.57751 on 4 procs for 2000 steps with 576 atoms

Performance: 37.750 ns/day, 0.636 hours/ns, 436.918 timesteps/s
99.4% CPU use with 4 MPI tasks x 1 OpenMP threads

MPI task timing breakdown:
Section |  min time  |  avg time  |  max time  |%varavg| %total
---------------------------------------------------------------
Pair    | 3.239      | 3.8307     | 4.3451     |  24.5 | 83.69
Bond    | 0.00013957 | 0.00015527 | 0.00017334 |   0.0 |  0.00
Neigh   | 0.042149   | 0.048108   | 0.053539   |   2.0 |  1.05
Comm    | 0.16078    | 0.67897    | 1.2751     |  58.4 | 14.83
Output  | 0.00042403 | 0.00042938 | 0.00043921 |   0.0 |  0.01
Modify  | 0.0088485  | 0.010184   | 0.011578   |   1.2 |  0.22
Other   |            | 0.008965   |            |       |  0.20

Nlocal:            144 ave         159 max         125 min
Histogram: 1 0 0 1 0 0 0 0 1 1
Nghost:        2706.75 ave        2800 max        2584 min
Histogram: 1 0 1 0 0 0 0 0 0 2
Neighs:              0 ave           0 max           0 min
Histogram: 4 0 0 0 0 0 0 0 0 0
FullNghs:      51804.5 ave       59216 max       42835 min
Histogram: 1 0 1 0 0 0 0 0 0 2

Total # of neighbors = 207218
Ave neighs/atom = 359.75347
Ave special neighs/atom = 0
Neighbor list builds = 31
Dangerous builds = 0
next var
jump input.lammps loop
change_box all z scale 1.005 remap
Changing box ...
  orthogonal box = (1.2258943 1.2587857 -3.3919208) to (19.359683 19.326792 23.977499)
run 2000
Per MPI rank memory allocation (min/avg/max) = 7.236 | 7.237 | 7.238 Mbytes
   Step          Temp          E_pair         E_mol          TotEng         Press     
     74000   296.51848     -5098.0901      0             -5076.0515     -79647.976    
     75000   315.19298     -5097.3437      0             -5073.9171     -72769.081    
     76000   303.4072      -5102.2277      0             -5079.6771     -76429.669    
Loop time of 4.55799 on 4 procs for 2000 steps with 576 atoms

Performance: 37.911 ns/day, 0.633 hours/ns, 438.790 timesteps/s
99.6% CPU use with 4 MPI tasks x 1 OpenMP threads

MPI task timing breakdown:
Section |  min time  |  avg time  |  max time  |%varavg| %total
---------------------------------------------------------------
Pair    | 3.1764     | 3.8001     | 4.3419     |  25.3 | 83.37
Bond    | 0.00014027 | 0.00015503 | 0.00017046 |   0.0 |  0.00
Neigh   | 0.044106   | 0.051035   | 0.056806   |   2.2 |  1.12
Comm    | 0.14128    | 0.68714    | 1.3162     |  59.9 | 15.08
Output  | 0.00043116 | 0.0004363  | 0.00044584 |   0.0 |  0.01
Modify  | 0.0087944  | 0.01009    | 0.01151    |   1.3 |  0.22
Other   |            | 0.009011   |            |       |  0.20

Nlocal:            144 ave         164 max         121 min
Histogram: 1 0 0 1 0 0 0 1 0 1
Nghost:         2709.5 ave        2813 max        2590 min
Histogram: 1 0 1 0 0 0 0 0 0 2
Neighs:              0 ave           0 max           0 min
Histogram: 4 0 0 0 0 0 0 0 0 0
FullNghs:      51579.5 ave       60970 max       41135 min
Histogram: 1 0 1 0 0 0 0 0 1 1

Total # of neighbors = 206318
Ave neighs/atom = 358.19097
Ave special neighs/atom = 0
Neighbor list builds = 33
Dangerous builds = 0
next var
jump input.lammps loop
change_box all z scale 1.005 remap
Changing box ...
  orthogonal box = (1.2258943 1.2587857 -3.4603444) to (19.359683 19.326792 24.045922)
run 2000
Per MPI rank memory allocation (min/avg/max) = 7.237 | 7.237 | 7.238 Mbytes
   Step          Temp          E_pair         E_mol          TotEng         Press     
     76000   303.4072      -5098.5604      0             -5076.0098     -84967.052    
     77000   306.85628     -5098.8725      0             -5076.0656     -68695.964    
     78000   298.38338     -5099.0572      0             -5076.8799     -70951.502    
Loop time of 4.66818 on 4 procs for 2000 steps with 576 atoms

Performance: 37.017 ns/day, 0.648 hours/ns, 428.432 timesteps/s
99.2% CPU use with 4 MPI tasks x 1 OpenMP threads

MPI task timing breakdown:
Section |  min time  |  avg time  |  max time  |%varavg| %total
---------------------------------------------------------------
Pair    | 3.0695     | 3.8189     | 4.4251     |  29.7 | 81.81
Bond    | 0.00013824 | 0.00015783 | 0.00018194 |   0.0 |  0.00
Neigh   | 0.040947   | 0.049521   | 0.056225   |   2.6 |  1.06
Comm    | 0.16868    | 0.77972    | 1.536      |  66.3 | 16.70
Output  | 0.00051431 | 0.00051991 | 0.00053183 |   0.0 |  0.01
Modify  | 0.0088482  | 0.010301   | 0.011831   |   1.4 |  0.22
Other   |            | 0.009016   |            |       |  0.19

Nlocal:            144 ave         163 max         119 min
Histogram: 1 0 0 0 1 0 0 0 1 1
Nghost:         2685.5 ave        2800 max        2564 min
Histogram: 1 1 0 0 0 0 0 0 1 1
Neighs:              0 ave           0 max           0 min
Histogram: 4 0 0 0 0 0 0 0 0 0
FullNghs:      51405.5 ave       60510 max       40064 min
Histogram: 1 0 0 1 0 0 0 0 1 1

Total # of neighbors = 205622
Ave neighs/atom = 356.98264
Ave special neighs/atom = 0
Neighbor list builds = 34
Dangerous builds = 0
next var
jump input.lammps loop
change_box all z scale 1.005 remap
Changing box ...
  orthogonal box = (1.2258943 1.2587857 -3.52911) to (19.359683 19.326792 24.114688)
run 2000
Per MPI rank memory allocation (min/avg/max) = 7.237 | 7.237 | 7.238 Mbytes
   Step          Temp          E_pair         E_mol          TotEng         Press     
     78000   298.38338     -5095.5775      0             -5073.4002     -79411.792    
     79000   298.33163     -5096.6115      0             -5074.4381     -73932.845    
     80000   299.64236     -5096.4245      0             -5074.1537     -71871.667    
Loop time of 4.68248 on 4 procs for 2000 steps with 576 atoms

Performance: 36.904 ns/day, 0.650 hours/ns, 427.124 timesteps/s
99.6% CPU use with 4 MPI tasks x 1 OpenMP threads

MPI task timing breakdown:
Section |  min time  |  avg time  |  max time  |%varavg| %total
---------------------------------------------------------------
Pair    | 3.0027     | 3.7992     | 4.4411     |  31.9 | 81.14
Bond    | 0.0001394  | 0.00015526 | 0.00017527 |   0.0 |  0.00
Neigh   | 0.040351   | 0.049244   | 0.056563   |   2.8 |  1.05
Comm    | 0.16688    | 0.81419    | 1.6179     |  69.5 | 17.39
Output  | 0.00041874 | 0.00042344 | 0.00043284 |   0.0 |  0.01
Modify  | 0.0088061  | 0.010255   | 0.011788   |   1.4 |  0.22
Other   |            | 0.008996   |            |       |  0.19

Nlocal:            144 ave         165 max         119 min
Histogram: 1 0 0 1 0 0 0 1 0 1
Nghost:        2684.25 ave        2798 max        2564 min
Histogram: 1 1 0 0 0 0 0 0 1 1
Neighs:              0 ave           0 max           0 min
Histogram: 4 0 0 0 0 0 0 0 0 0
FullNghs:        51120 ave       60856 max       39866 min
Histogram: 1 0 0 1 0 0 0 0 1 1

Total # of neighbors = 204480
Ave neighs/atom = 355
Ave special neighs/atom = 0
Neighbor list builds = 34
Dangerous builds = 0
next var
jump input.lammps loop
change_box all z scale 1.005 remap
Changing box ...
  orthogonal box = (1.2258943 1.2587857 -3.5982195) to (19.359683 19.326792 24.183797)
run 2000
Per MPI rank memory allocation (min/avg/max) = 7.237 | 7.237 | 7.238 Mbytes
   Step          Temp          E_pair         E_mol          TotEng         Press     
     80000   299.64236     -5093.2121      0             -5070.9413     -80409.044    
     81000   303.22003     -5095.8363      0             -5073.2996     -74772.863    
     82000   276.01938     -5092.9791      0             -5072.4641     -78372.267    
Loop time of 4.62809 on 4 procs for 2000 steps with 576 atoms

Performance: 37.337 ns/day, 0.643 hours/ns, 432.143 timesteps/s
99.3% CPU use with 4 MPI tasks x 1 OpenMP threads

MPI task timing breakdown:
Section |  min time  |  avg time  |  max time  |%varavg| %total
---------------------------------------------------------------
Pair    | 2.9756     | 3.7727     | 4.4058     |  31.7 | 81.52
Bond    | 0.0001367  | 0.0001538  | 0.00017327 |   0.0 |  0.00
Neigh   | 0.03774    | 0.046236   | 0.052964   |   2.7 |  1.00
Comm    | 0.15146    | 0.78941    | 1.5933     |  69.8 | 17.06
Output  | 0.0004349  | 0.00043934 | 0.00044897 |   0.0 |  0.01
Modify  | 0.0087295  | 0.010165   | 0.011696   |   1.3 |  0.22
Other   |            | 0.008944   |            |       |  0.19

Nlocal:            144 ave         165 max         119 min
Histogram: 1 0 0 1 0 0 0 1 0 1
Nghost:        2683.75 ave        2802 max        2564 min
Histogram: 1 1 0 0 0 0 0 0 1 1
Neighs:              0 ave           0 max           0 min
Histogram: 4 0 0 0 0 0 0 0 0 0
FullNghs:      50876.5 ave       60588 max       39535 min
Histogram: 1 0 0 1 0 0 0 0 1 1

Total # of neighbors = 203506
Ave neighs/atom = 353.30903
Ave special neighs/atom = 0
Neighbor list builds = 32
Dangerous builds = 0
next var
jump input.lammps loop
change_box all z scale 1.005 remap
Changing box ...
  orthogonal box = (1.2258943 1.2587857 -3.6676746) to (19.359683 19.326792 24.253252)
run 2000
Per MPI rank memory allocation (min/avg/max) = 7.237 | 7.237 | 7.238 Mbytes
   Step          Temp          E_pair         E_mol          TotEng         Press     
     82000   276.01938     -5089.5866      0             -5069.0715     -86754.623    
     83000   310.77228     -5092.3192      0             -5069.2211     -72720.199    
     84000   296.98395     -5093.5005      0             -5071.4272     -70351.985    
Loop time of 4.61073 on 4 procs for 2000 steps with 576 atoms

Performance: 37.478 ns/day, 0.640 hours/ns, 433.771 timesteps/s
99.8% CPU use with 4 MPI tasks x 1 OpenMP threads

MPI task timing breakdown:
Section |  min time  |  avg time  |  max time  |%varavg| %total
---------------------------------------------------------------
Pair    | 3.0358     | 3.7558     | 4.4148     |  31.8 | 81.46
Bond    | 0.00013618 | 0.00015356 | 0.00017686 |   0.0 |  0.00
Neigh   | 0.039876   | 0.047835   | 0.055832   |   2.9 |  1.04
Comm    | 0.12239    | 0.78728    | 1.5134     |  69.9 | 17.07
Output  | 0.00045883 | 0.00046525 | 0.00048338 |   0.0 |  0.01
Modify  | 0.0085614  | 0.010246   | 0.011929   |   1.6 |  0.22
Other   |            | 0.0089     |            |       |  0.19

Nlocal:            144 ave         164 max         122 min
Histogram: 1 0 0 1 0 0 0 1 0 1
Nghost:        2687.25 ave        2807 max        2583 min
Histogram: 2 0 0 0 0 0 0 1 0 1
Neighs:              0 ave           0 max           0 min
Histogram: 4 0 0 0 0 0 0 0 0 0
FullNghs:        50614 ave       59975 max       40383 min
Histogram: 1 0 1 0 0 0 0 1 0 1

Total # of neighbors = 202456
Ave neighs/atom = 351.48611
Ave special neighs/atom = 0
Neighbor list builds = 33
Dangerous builds = 0
next var
jump input.lammps loop
change_box all z scale 1.005 remap
Changing box ...
  orthogonal box = (1.2258943 1.2587857 -3.7374769) to (19.359683 19.326792 24.323055)
run 2000
Per MPI rank memory allocation (min/avg/max) = 7.237 | 7.237 | 7.238 Mbytes
   Step          Temp          E_pair         E_mol          TotEng         Press     
     84000   296.98395     -5090.3566      0             -5068.2833     -78873.404    
     85000   295.3679      -5093.544       0             -5071.5909     -49538.377    
     86000   311.73402     -5095.4127      0             -5072.2432     -50327.179    
Loop time of 4.76533 on 4 procs for 2000 steps with 576 atoms

Performance: 36.262 ns/day, 0.662 hours/ns, 419.699 timesteps/s
99.5% CPU use with 4 MPI tasks x 1 OpenMP threads

MPI task timing breakdown:
Section |  min time  |  avg time  |  max time  |%varavg| %total
---------------------------------------------------------------
Pair    | 2.9515     | 3.7643     | 4.5032     |  37.7 | 78.99
Bond    | 0.00013493 | 0.0001541  | 0.00017645 |   0.0 |  0.00
Neigh   | 0.044621   | 0.053984   | 0.063358   |   3.4 |  1.13
Comm    | 0.18107    | 0.92681    | 1.7466     |  76.6 | 19.45
Output  | 0.00046607 | 0.00047222 | 0.00048959 |   0.0 |  0.01
Modify  | 0.008555   | 0.010664   | 0.012752   |   1.9 |  0.22
Other   |            | 0.008908   |            |       |  0.19

Nlocal:            144 ave         165 max         119 min
Histogram: 1 0 1 0 0 0 0 0 0 2
Nghost:        2668.25 ave        2814 max        2531 min
Histogram: 2 0 0 0 0 0 0 0 1 1
Neighs:              0 ave           0 max           0 min
Histogram: 4 0 0 0 0 0 0 0 0 0
FullNghs:        50623 ave       61535 max       38539 min
Histogram: 1 1 0 0 0 0 0 0 0 2

Total # of neighbors = 202492
Ave neighs/atom = 351.54861
Ave special neighs/atom = 0
Neighbor list builds = 37
Dangerous builds = 0
next var
jump input.lammps loop
change_box all z scale 1.005 remap
Changing box ...
  orthogonal box = (1.2258943 1.2587857 -3.8076282) to (19.359683 19.326792 24.393206)
run 2000
Per MPI rank memory allocation (min/avg/max) = 7.237 | 7.238 | 7.238 Mbytes
   Step          Temp          E_pair         E_mol          TotEng         Press     
     86000   311.73402     -5093.1451      0             -5069.9756     -59345.365    
     87000   298.17675     -5096.482       0             -5074.3202     -49337.001    
     88000   270.74135     -5098.3015      0             -5078.1787     -49829.19     
Loop time of 4.85981 on 4 procs for 2000 steps with 576 atoms

Performance: 35.557 ns/day, 0.675 hours/ns, 411.539 timesteps/s
99.6% CPU use with 4 MPI tasks x 1 OpenMP threads

MPI task timing breakdown:
Section |  min time  |  avg time  |  max time  |%varavg| %total
---------------------------------------------------------------
Pair    | 2.8867     | 3.7564     | 4.6097     |  42.8 | 77.30
Bond    | 0.00013334 | 0.00015526 | 0.00017586 |   0.0 |  0.00
Neigh   | 0.044164   | 0.054515   | 0.064636   |   3.9 |  1.12
Comm    | 0.16979    | 1.0283     | 1.9057     |  82.4 | 21.16
Output  | 0.00047494 | 0.00048126 | 0.00049901 |   0.0 |  0.01
Modify  | 0.0087347  | 0.011008   | 0.013279   |   2.1 |  0.23
Other   |            | 0.008934   |            |       |  0.18

Nlocal:            144 ave         166 max         118 min
Histogram: 1 1 0 0 0 0 0 0 0 2
Nghost:         2663.5 ave        2809 max        2511 min
Histogram: 1 1 0 0 0 0 0 0 0 2
Neighs:              0 ave           0 max           0 min
Histogram: 4 0 0 0 0 0 0 0 0 0
FullNghs:        50477 ave       61594 max       38046 min
Histogram: 1 1 0 0 0 0 0 0 0 2

Total # of neighbors = 201908
Ave neighs/atom = 350.53472
Ave special neighs/atom = 0
Neighbor list builds = 38
Dangerous builds = 0
next var
jump input.lammps loop
change_box all z scale 1.005 remap
Changing box ...
  orthogonal box = (1.2258943 1.2587857 -3.8781303) to (19.359683 19.326792 24.463708)
run 2000
Per MPI rank memory allocation (min/avg/max) = 7.237 | 7.238 | 7.238 Mbytes
   Step          Temp          E_pair         E_mol          TotEng         Press     
     88000   270.74135     -5096.0166      0             -5075.8939     -58884.637    
     89000   301.45124     -5094.7367      0             -5072.3315     -50644.954    
     90000   308.26112     -5095.1192      0             -5072.2078     -50665.984    
Loop time of 4.85485 on 4 procs for 2000 steps with 576 atoms

Performance: 35.593 ns/day, 0.674 hours/ns, 411.959 timesteps/s
99.6% CPU use with 4 MPI tasks x 1 OpenMP threads

MPI task timing breakdown:
Section |  min time  |  avg time  |  max time  |%varavg| %total
---------------------------------------------------------------
Pair    | 2.8788     | 3.7446     | 4.6091     |  43.5 | 77.13
Bond    | 0.00013432 | 0.00015526 | 0.00017802 |   0.0 |  0.00
Neigh   | 0.039394   | 0.048877   | 0.057987   |   3.8 |  1.01
Comm    | 0.17158    | 1.0404     | 1.9126     |  82.9 | 21.43
Output  | 0.00044806 | 0.00045488 | 0.00047427 |   0.0 |  0.01
Modify  | 0.0086813  | 0.01139    | 0.014023   |   2.5 |  0.23
Other   |            | 0.008967   |            |       |  0.18

Nlocal:            144 ave         168 max         117 min
Histogram: 1 1 0 0 0 0 0 0 0 2
Nghost:        2656.75 ave        2802 max        2524 min
Histogram: 2 0 0 0 0 0 0 0 1 1
Neighs:              0 ave           0 max           0 min
Histogram: 4 0 0 0 0 0 0 0 0 0
FullNghs:      50180.5 ave       61720 max       37423 min
Histogram: 1 1 0 0 0 0 0 0 0 2

Total # of neighbors = 200722
Ave neighs/atom = 348.47569
Ave special neighs/atom = 0
Neighbor list builds = 34
Dangerous builds = 0
next var
jump input.lammps loop
run 20000
Per MPI rank memory allocation (min/avg/max) = 7.237 | 7.238 | 7.238 Mbytes
   Step          Temp          E_pair         E_mol          TotEng         Press     
     90000   308.26112     -5095.1192      0             -5072.2078     -50665.984    
     91000   308.81151     -5096.1197      0             -5073.1674     -49644.814    
     92000   303.38029     -5096.0946      0             -5073.546      -51840.124    
     93000   315.14702     -5096.3989      0             -5072.9758     -51924.198    
     94000   306.79936     -5096.4453      0             -5073.6425     -51816.02     
     95000   311.8345      -5095.5161      0             -5072.3391     -52921.683    
     96000   296.21149     -5096.0719      0             -5074.0562     -52804.411    
     97000   305.49056     -5096.0429      0             -5073.3374     -47403.455    
     98000   312.40141     -5096.214       0             -5072.9949     -51173.408    
     99000   296.53746     -5096.5222      0             -5074.4822     -54712.351    
    100000   285.94676     -5095.1612      0             -5073.9083     -47781.358    
    101000   302.95026     -5096.1238      0             -5073.6071     -53272.106    
    102000   307.66038     -5095.4061      0             -5072.5393     -53161.665    
    103000   305.60318     -5096.7947      0             -5074.0809     -48339.699    
    104000   290.84559     -5097.3756      0             -5075.7586     -53611.305    
    105000   304.55282     -5095.8253      0             -5073.1895     -46036.762    
    106000   289.41815     -5096.1062      0             -5074.5953     -48273.766    
    107000   297.93072     -5096.1667      0             -5074.0231     -53412.862    
    108000   301.5371      -5095.4669      0             -5073.0553     -47194.255    
    109000   299.63354     -5097.146       0             -5074.8758     -47886.475    
    110000   301.6313      -5095.0789      0             -5072.6603     -46945.38     
Loop time of 48.6776 on 4 procs for 20000 steps with 576 atoms

Performance: 35.499 ns/day, 0.676 hours/ns, 410.867 timesteps/s
99.5% CPU use with 4 MPI tasks x 1 OpenMP threads

MPI task timing breakdown:
Section |  min time  |  avg time  |  max time  |%varavg| %total
---------------------------------------------------------------
Pair    | 29.217     | 37.597     | 46.233     | 136.2 | 77.24
Bond    | 0.0013632  | 0.0015496  | 0.0017833  |   0.4 |  0.00
Neigh   | 0.36564    | 0.44635    | 0.52446    |  11.1 |  0.92
Comm    | 1.751      | 10.426     | 18.842     | 260.0 | 21.42
Output  | 0.0048568  | 0.0049218  | 0.0051045  |   0.2 |  0.01
Modify  | 0.087416   | 0.112      | 0.13601    |   7.1 |  0.23
Other   |            | 0.08959    |            |       |  0.18

Nlocal:            144 ave         165 max         120 min
Histogram: 1 1 0 0 0 0 0 0 0 2
Nghost:        2654.25 ave        2789 max        2513 min
Histogram: 1 1 0 0 0 0 0 0 0 2
Neighs:              0 ave           0 max           0 min
Histogram: 4 0 0 0 0 0 0 0 0 0
FullNghs:        50280 ave       61116 max       38447 min
Histogram: 1 1 0 0 0 0 0 0 0 2

Total # of neighbors = 201120
Ave neighs/atom = 349.16667
Ave special neighs/atom = 0
Neighbor list builds = 310
Dangerous builds = 0
write_data dilatedSiO.data
System init for write_data ...
Total wall time: 0:04:10
