ITEM: TIMESTEP
0
ITEM: NUMBER OF ATOMS
66
ITEM: BOX BOUNDS pp pp pp
-2.3407027419979162e+01 2.3407027419979162e+01
-8.7776352824922288e+00 8.7776352824922288e+00
-8.7776352824922288e+00 8.7776352824922288e+00
ITEM: ATOMS id type xs ys zs
2 5 0.0215112 0.443037 0.5
8 5 0.0514168 0.443037 0.5
12 5 0.111228 0.443037 0.5
15 5 0.171039 0.443037 0.5
19 5 0.23085 0.443037 0.5
22 5 0.290661 0.443037 0.5
26 5 0.350472 0.443037 0.5
29 5 0.410283 0.443037 0.5
33 5 0.470094 0.443037 0.5
36 5 0.529906 0.443037 0.5
40 5 0.589717 0.443037 0.5
43 5 0.649528 0.443037 0.5
47 5 0.709339 0.443037 0.5
50 5 0.76915 0.443037 0.5
54 5 0.828961 0.443037 0.5
5 7 0.991606 0.443037 0.5
57 5 0.888772 0.443037 0.5
61 5 0.948583 0.443037 0.5
64 5 0.978489 0.443037 0.5
1 3 0.0215112 0.5 0.5
3 5 0.0215112 0.556963 0.5
6 3 0.0514168 0.5 0.5
7 5 0.0514168 0.556963 0.5
9 4 0.0813223 0.5 0.5
10 3 0.111228 0.5 0.5
11 5 0.111228 0.556963 0.5
65 6 0.00839433 0.5 0.5
66 7 0.00839433 0.556963 0.5
13 3 0.171039 0.5 0.5
14 5 0.171039 0.556963 0.5
16 4 0.200945 0.5 0.5
17 3 0.23085 0.5 0.5
18 5 0.23085 0.556963 0.5
20 3 0.290661 0.5 0.5
21 5 0.290661 0.556963 0.5
23 4 0.320567 0.5 0.5
24 3 0.350472 0.5 0.5
25 5 0.350472 0.556963 0.5
27 3 0.410283 0.5 0.5
28 5 0.410283 0.556963 0.5
30 4 0.440189 0.5 0.5
31 3 0.470094 0.5 0.5
32 5 0.470094 0.556963 0.5
34 3 0.529906 0.5 0.5
35 5 0.529906 0.556963 0.5
37 4 0.559811 0.5 0.5
38 3 0.589717 0.5 0.5
39 5 0.589717 0.556963 0.5
41 3 0.649528 0.5 0.5
42 5 0.649528 0.556963 0.5
44 4 0.679433 0.5 0.5
45 3 0.709339 0.5 0.5
46 5 0.709339 0.556963 0.5
48 3 0.76915 0.5 0.5
49 5 0.76915 0.556963 0.5
51 4 0.799055 0.5 0.5
52 3 0.828961 0.5 0.5
53 5 0.828961 0.556963 0.5
4 6 0.991606 0.5 0.5
55 3 0.888772 0.5 0.5
56 5 0.888772 0.556963 0.5
58 4 0.918678 0.5 0.5
59 3 0.948583 0.5 0.5
60 5 0.948583 0.556963 0.5
62 3 0.978489 0.5 0.5
63 5 0.978489 0.556963 0.5
ITEM: TIMESTEP
10
ITEM: NUMBER OF ATOMS
66
ITEM: BOX BOUNDS pp pp pp
-2.3407027419979162e+01 2.3407027419979162e+01
-8.7776352824922288e+00 8.7776352824922288e+00
-8.7776352824922288e+00 8.7776352824922288e+00
ITEM: ATOMS id type xs ys zs
2 5 0.0216139 0.442455 0.499998
8 5 0.0514174 0.443036 0.5
12 5 0.111228 0.443037 0.5
15 5 0.171039 0.443037 0.5
19 5 0.23085 0.443037 0.5
22 5 0.290661 0.443037 0.5
26 5 0.350472 0.443037 0.5
29 5 0.410283 0.443037 0.5
33 5 0.470094 0.443037 0.5
36 5 0.529906 0.443037 0.5
40 5 0.589717 0.443037 0.5
43 5 0.649528 0.443037 0.5
47 5 0.709339 0.443037 0.5
50 5 0.76915 0.443037 0.5
54 5 0.828961 0.443037 0.5
5 7 0.991607 0.443037 0.5
57 5 0.888772 0.443037 0.5
61 5 0.948583 0.443037 0.5
64 5 0.978371 0.442385 0.499996
1 3 0.0381691 0.500875 0.499209
3 5 0.0216299 0.557621 0.499997
6 3 0.0514216 0.499608 0.500244
7 5 0.0514174 0.556964 0.5
9 4 0.0813223 0.500021 0.500004
10 3 0.111229 0.499992 0.499997
11 5 0.111228 0.556963 0.5
65 6 0.0131499 0.500379 0.500334
66 7 0.00839316 0.556963 0.5
13 3 0.171038 0.499995 0.499991
14 5 0.171039 0.556963 0.5
16 4 0.200945 0.500001 0.500009
17 3 0.230851 0.500008 0.499989
18 5 0.23085 0.556963 0.5
20 3 0.29066 0.500014 0.500104
21 5 0.290661 0.556963 0.5
23 4 0.320567 0.499487 0.499692
24 3 0.350473 0.500616 0.500281
25 5 0.350472 0.556963 0.5
27 3 0.410283 0.50012 0.499932
28 5 0.410283 0.556963 0.5
30 4 0.440189 0.499758 0.5
31 3 0.470095 0.500001 0.5
32 5 0.470094 0.556963 0.5
34 3 0.529905 0.500003 0.500001
35 5 0.529906 0.556963 0.5
37 4 0.559811 0.499817 0.499995
38 3 0.589717 0.499782 0.499908
39 5 0.589717 0.556963 0.5
41 3 0.649527 0.499863 0.498772
42 5 0.649528 0.556963 0.5
44 4 0.679433 0.502048 0.503064
45 3 0.70934 0.498486 0.498141
46 5 0.709339 0.556963 0.5
48 3 0.769149 0.500006 0.500115
49 5 0.76915 0.556963 0.5
51 4 0.799055 0.499986 0.500004
52 3 0.828962 0.500013 0.499993
53 5 0.828961 0.556963 0.5
4 6 0.98685 0.499711 0.500548
55 3 0.888771 0.499997 0.500008
56 5 0.888772 0.556963 0.5
58 4 0.918678 0.499839 0.500018
59 3 0.948578 0.500696 0.500038
60 5 0.948583 0.556964 0.5
62 3 0.961831 0.498865 0.499619
63 5 0.978385 0.55755 0.499996
ITEM: TIMESTEP
20
ITEM: NUMBER OF ATOMS
66
ITEM: BOX BOUNDS pp pp pp
-2.3407027419979162e+01 2.3407027419979162e+01
-8.7776352824922288e+00 8.7776352824922288e+00
-8.7776352824922288e+00 8.7776352824922288e+00
ITEM: ATOMS id type xs ys zs
2 5 0.02502 0.412346 0.49948
8 5 0.0520567 0.442933 0.499964
12 5 0.111164 0.442782 0.500014
15 5 0.171076 0.442791 0.500176
19 5 0.23079 0.442802 0.500077
22 5 0.290706 0.442802 0.499858
26 5 0.35045 0.442821 0.4998
29 5 0.410327 0.442808 0.500149
33 5 0.470041 0.442803 0.500111
36 5 0.529956 0.442799 0.49987
40 5 0.589658 0.442779 0.500031
43 5 0.649524 0.442791 0.500237
47 5 0.709348 0.442745 0.500247
50 5 0.769178 0.4428 0.499803
54 5 0.828914 0.442795 0.500141
5 7 0.991564 0.443366 0.500024
57 5 0.88882 0.442804 0.499864
61 5 0.947906 0.442993 0.500093
64 5 0.974911 0.412152 0.49906
1 3 0.0564723 0.501359 0.495059
3 5 0.0251253 0.588042 0.499514
6 3 0.0584522 0.499187 0.50329
7 5 0.0520911 0.557016 0.500055
9 4 0.0814504 0.501125 0.499581
10 3 0.111899 0.499311 0.500099
11 5 0.111165 0.557197 0.500014
65 6 0.0192649 0.500303 0.501143
66 7 0.00843428 0.556645 0.500011
13 3 0.170437 0.499921 0.498845
14 5 0.171076 0.557204 0.500176
16 4 0.200945 0.499629 0.501265
17 3 0.231499 0.500484 0.499314
18 5 0.230789 0.557215 0.500078
20 3 0.290043 0.500661 0.500612
21 5 0.290708 0.557215 0.499857
23 4 0.320568 0.49827 0.499112
24 3 0.351044 0.50105 0.50111
25 5 0.350448 0.557233 0.499794
27 3 0.409665 0.500788 0.499233
28 5 0.41033 0.557221 0.500151
30 4 0.440189 0.498411 0.500569
31 3 0.470729 0.500723 0.499523
32 5 0.47004 0.557216 0.500112
34 3 0.529277 0.50027 0.50089
35 5 0.529957 0.557211 0.499869
37 4 0.55981 0.499774 0.498769
38 3 0.590362 0.499458 0.500612
39 5 0.58966 0.557193 0.50003
41 3 0.649022 0.499624 0.497686
42 5 0.649522 0.557194 0.500235
44 4 0.679437 0.502667 0.504015
45 3 0.709831 0.498203 0.497066
46 5 0.709351 0.557142 0.500229
48 3 0.768564 0.500568 0.501199
49 5 0.769177 0.557211 0.499801
51 4 0.799054 0.498964 0.499574
52 3 0.829587 0.500555 0.499286
53 5 0.828913 0.557208 0.500141
4 6 0.980677 0.499847 0.506301
55 3 0.888131 0.500648 0.500878
56 5 0.888822 0.557218 0.499863
58 4 0.918549 0.498728 0.499387
59 3 0.941505 0.501326 0.502816
60 5 0.947951 0.557076 0.499962
62 3 0.943595 0.497915 0.49487
63 5 0.974973 0.587661 0.499009
ITEM: TIMESTEP
30
ITEM: NUMBER OF ATOMS
66
ITEM: BOX BOUNDS pp pp pp
-2.3407027419979162e+01 2.3407027419979162e+01
-8.7776352824922288e+00 8.7776352824922288e+00
-8.7776352824922288e+00 8.7776352824922288e+00
ITEM: ATOMS id type xs ys zs
2 5 0.0286179 0.405577 0.498169
8 5 0.0552104 0.443193 0.500564
12 5 0.110767 0.440912 0.499625
15 5 0.171358 0.44147 0.501211
19 5 0.230478 0.441621 0.50084
22 5 0.291019 0.441871 0.499207
26 5 0.350198 0.441913 0.498883
29 5 0.410621 0.4419 0.500866
33 5 0.469713 0.441924 0.500635
36 5 0.530253 0.441492 0.498964
40 5 0.589306 0.441261 0.499274
43 5 0.649727 0.441177 0.501617
47 5 0.709179 0.440861 0.501751
50 5 0.769445 0.441914 0.498905
54 5 0.828579 0.441934 0.500613
5 7 0.990654 0.446669 0.501538
57 5 0.889077 0.441679 0.499079
61 5 0.94466 0.443777 0.501005
64 5 0.971494 0.405397 0.49491
1 3 0.0541749 0.501382 0.490659
3 5 0.028999 0.596343 0.498391
6 3 0.0659087 0.49727 0.518064
7 5 0.0553165 0.556246 0.50111
9 4 0.084377 0.505354 0.492647
10 3 0.115844 0.497641 0.50442
11 5 0.110853 0.558198 0.499688
65 6 0.0127061 0.502171 0.473625
66 7 0.00907452 0.554697 0.500096
13 3 0.167196 0.500666 0.492181
14 5 0.171358 0.558652 0.50124
16 4 0.200954 0.498045 0.508608
17 3 0.234868 0.500939 0.493353
18 5 0.230422 0.558827 0.50089
20 3 0.28662 0.502933 0.505075
21 5 0.291128 0.559123 0.499102
23 4 0.320558 0.492521 0.494326
24 3 0.354381 0.502729 0.506166
25 5 0.350083 0.559146 0.49874
27 3 0.406247 0.502979 0.494866
28 5 0.410742 0.559142 0.50098
30 4 0.440193 0.491969 0.504727
31 3 0.47419 0.503339 0.495742
32 5 0.469598 0.559184 0.500732
34 3 0.525953 0.500173 0.507196
35 5 0.530286 0.558685 0.498947
37 4 0.559817 0.499506 0.491208
38 3 0.593802 0.499673 0.506692
39 5 0.589332 0.558458 0.499296
41 3 0.645927 0.498611 0.49149
42 5 0.649672 0.558329 0.501514
44 4 0.679446 0.50518 0.509415
45 3 0.712878 0.497556 0.49115
46 5 0.709239 0.557974 0.501504
48 3 0.765126 0.503509 0.505285
49 5 0.769526 0.55914 0.498755
51 4 0.799043 0.491552 0.497134
52 3 0.833068 0.503794 0.498455
53 5 0.82845 0.559228 0.500677
4 6 0.983573 0.496693 0.546962
55 3 0.884348 0.501279 0.50618
56 5 0.889155 0.558932 0.499006
58 4 0.915558 0.494956 0.492036
59 3 0.933764 0.503234 0.515365
60 5 0.944786 0.556924 0.500366
62 3 0.949285 0.497913 0.473313
63 5 0.971817 0.592665 0.494968
ITEM: TIMESTEP
40
ITEM: NUMBER OF ATOMS
66
ITEM: BOX BOUNDS pp pp pp
-2.3407027419979162e+01 2.3407027419979162e+01
-8.7776352824922288e+00 8.7776352824922288e+00
-8.7776352824922288e+00 8.7776352824922288e+00
ITEM: ATOMS id type xs ys zs
2 5 0.0286222 0.418785 0.497845
8 5 0.0597708 0.444418 0.500642
12 5 0.110692 0.43967 0.498672
15 5 0.171494 0.440969 0.502673
19 5 0.230384 0.441087 0.50218
22 5 0.2911 0.441983 0.498127
26 5 0.350163 0.441948 0.497633
29 5 0.410675 0.442055 0.501962
33 5 0.469616 0.442172 0.501587
36 5 0.530348 0.440755 0.497502
40 5 0.589155 0.440498 0.497922
43 5 0.649875 0.440073 0.50339
47 5 0.709068 0.43958 0.503635
50 5 0.769501 0.442423 0.497858
54 5 0.828361 0.442479 0.501079
5 7 0.990834 0.455565 0.512173
57 5 0.888979 0.441286 0.498124
61 5 0.940848 0.445862 0.503678
64 5 0.971337 0.418718 0.488361
1 3 0.033925 0.499221 0.516535
3 5 0.0293606 0.583215 0.498643
6 3 0.0674784 0.497299 0.52794
7 5 0.0598937 0.553109 0.502129
9 4 0.088829 0.506658 0.486825
10 3 0.11937 0.498373 0.508454
11 5 0.110936 0.558208 0.498983
65 6 -0.00515322 0.51226 0.440325
66 7 0.00763124 0.546039 0.491633
13 3 0.165998 0.500578 0.486774
14 5 0.171517 0.559628 0.502861
16 4 0.201032 0.497596 0.512633
17 3 0.236451 0.500573 0.488143
18 5 0.230221 0.559783 0.502312
20 3 0.284915 0.502461 0.510176
21 5 0.291479 0.560887 0.497621
23 4 0.320534 0.490146 0.49001
24 3 0.356029 0.502206 0.511335
25 5 0.349771 0.560747 0.497105
27 3 0.404557 0.502631 0.489886
28 5 0.411117 0.560955 0.502482
30 4 0.440205 0.488854 0.509167
31 3 0.475937 0.502949 0.490868
32 5 0.469195 0.561167 0.502108
34 3 0.524433 0.499974 0.512415
35 5 0.530442 0.559391 0.497522
37 4 0.559864 0.499462 0.486984
38 3 0.595488 0.499866 0.511329
39 5 0.589201 0.559174 0.497941
41 3 0.644187 0.498932 0.487128
42 5 0.649705 0.55864 0.503038
44 4 0.67943 0.505647 0.51196
45 3 0.714591 0.49823 0.486873
46 5 0.709189 0.558112 0.502982
48 3 0.76325 0.50383 0.508687
49 5 0.769912 0.561335 0.497124
51 4 0.798946 0.485288 0.495037
52 3 0.834647 0.504838 0.497877
53 5 0.827768 0.561993 0.501348
4 6 1.00259 0.487954 0.562316
55 3 0.881017 0.500378 0.510765
56 5 0.889206 0.559709 0.497963
58 4 0.91098 0.493773 0.486182
59 3 0.934267 0.502734 0.520887
60 5 0.940905 0.556879 0.502075
62 3 0.965879 0.499434 0.462447
63 5 0.972055 0.578556 0.489131
ITEM: TIMESTEP
50
ITEM: NUMBER OF ATOMS
66
ITEM: BOX BOUNDS pp pp pp
-2.3407027419979162e+01 2.3407027419979162e+01
-8.7776352824922288e+00 8.7776352824922288e+00
-8.7776352824922288e+00 8.7776352824922288e+00
ITEM: ATOMS id type xs ys zs
2 5 0.0298755 0.447074 0.481429
8 5 0.0711041 0.44083 0.49762
12 5 0.119692 0.443647 0.494381
15 5 0.172097 0.443275 0.513807
19 5 0.233782 0.444282 0.513165
22 5 0.28878 0.444231 0.485491
26 5 0.353134 0.444471 0.485063
29 5 0.407865 0.444427 0.514818
33 5 0.472324 0.444435 0.514269
36 5 0.52749 0.443659 0.484792
40 5 0.59179 0.443396 0.485286
43 5 0.647083 0.443376 0.515581
47 5 0.711939 0.443239 0.515502
50 5 0.766617 0.446144 0.484541
54 5 0.826503 0.44809 0.514753
5 7 1.0017 0.467894 0.544484
57 5 0.88014 0.444142 0.495974
61 5 0.933846 0.444127 0.509808
64 5 0.973182 0.439891 0.48475
1 3 0.0365389 0.495382 0.520471
3 5 0.0289002 0.552854 0.497484
6 3 0.0745164 0.495679 0.531765
7 5 0.0707114 0.552771 0.501418
9 4 0.10039 0.502292 0.49189
10 3 0.129436 0.498634 0.514516
11 5 0.119832 0.554341 0.495563
65 6 0.978215 0.528994 0.431003
66 7 -0.00399179 0.536589 0.462742
13 3 0.173141 0.500229 0.483462
14 5 0.171926 0.556994 0.514098
16 4 0.205728 0.498935 0.510869
17 3 0.239093 0.500317 0.485568
18 5 0.23346 0.556159 0.513079
20 3 0.286656 0.500969 0.514647
21 5 0.289252 0.557281 0.485022
23 4 0.321282 0.495831 0.489824
24 3 0.356204 0.500931 0.514089
25 5 0.352475 0.556898 0.48479
27 3 0.405102 0.501081 0.486002
28 5 0.40855 0.557202 0.515206
30 4 0.440275 0.495276 0.510131
31 3 0.47546 0.501122 0.485923
32 5 0.471856 0.557326 0.514811
34 3 0.524532 0.50003 0.514024
35 5 0.527792 0.556402 0.485048
37 4 0.559759 0.499689 0.489183
38 3 0.594924 0.499882 0.514102
39 5 0.59188 0.556362 0.485177
41 3 0.643809 0.499271 0.4857
42 5 0.646845 0.555621 0.515088
44 4 0.678776 0.501753 0.509825
45 3 0.713329 0.498743 0.483615
46 5 0.711467 0.555041 0.514278
48 3 0.761108 0.504484 0.506386
49 5 0.768017 0.56018 0.481955
51 4 0.794255 0.479066 0.497157
52 3 0.826474 0.506109 0.487192
53 5 0.825084 0.562722 0.516714
4 6 0.0187911 0.483491 0.567381
55 3 0.869959 0.500671 0.509791
56 5 0.880848 0.556285 0.496516
58 4 0.897275 0.497664 0.474421
59 3 0.924975 0.50503 0.499381
60 5 0.933343 0.567107 0.501428
62 3 0.962558 0.496718 0.468346
63 5 0.970245 0.542964 0.507404
ITEM: TIMESTEP
60
ITEM: NUMBER OF ATOMS
66
ITEM: BOX BOUNDS pp pp pp
-2.3407027419979162e+01 2.3407027419979162e+01
-8.7776352824922288e+00 8.7776352824922288e+00
-8.7776352824922288e+00 8.7776352824922288e+00
ITEM: ATOMS id type xs ys zs
2 5 0.0405329 0.451977 0.473065
8 5 0.0832344 0.439937 0.492699
12 5 0.132419 0.444194 0.487578
15 5 0.179407 0.443382 0.523324
19 5 0.241137 0.445654 0.523564
22 5 0.28897 0.446028 0.475538
26 5 0.357628 0.446452 0.474583
29 5 0.405255 0.446468 0.525325
33 5 0.476036 0.446507 0.525331
36 5 0.523837 0.445987 0.474011
40 5 0.594396 0.445611 0.474364
43 5 0.642514 0.445206 0.525461
47 5 0.712125 0.444497 0.523474
50 5 0.758629 0.451596 0.467106
54 5 0.820308 0.454465 0.525046
5 7 0.0139546 0.472056 0.555871
57 5 0.86966 0.441243 0.499388
61 5 0.91822 0.455686 0.53279
64 5 0.961434 0.441066 0.481224
1 3 0.0469452 0.493344 0.515824
3 5 0.0392646 0.551212 0.492931
6 3 0.0863448 0.494575 0.529135
7 5 0.0826523 0.553405 0.497166
9 4 0.111041 0.499939 0.49019
10 3 0.138777 0.497659 0.516898
11 5 0.132262 0.553249 0.489852
65 6 0.9638 0.530261 0.425951
66 7 0.983636 0.537693 0.437715
13 3 0.181531 0.499782 0.490307
14 5 0.179037 0.555895 0.52314
16 4 0.212857 0.498908 0.519269
17 3 0.244091 0.500107 0.489856
18 5 0.240898 0.554474 0.52323
20 3 0.290732 0.500789 0.509734
21 5 0.289184 0.554796 0.475214
23 4 0.324286 0.497579 0.483304
24 3 0.35798 0.500774 0.509344
25 5 0.357252 0.554405 0.474516
27 3 0.406452 0.500913 0.490705
28 5 0.405615 0.554536 0.525526
30 4 0.440962 0.497336 0.516198
31 3 0.475465 0.500848 0.490706
32 5 0.475841 0.554423 0.525644
34 3 0.524373 0.49993 0.509216
35 5 0.524056 0.554043 0.474377
37 4 0.558952 0.49952 0.48311
38 3 0.593471 0.499765 0.50905
39 5 0.594572 0.55389 0.474315
41 3 0.641783 0.49855 0.489725
42 5 0.642433 0.553041 0.524366
44 4 0.675629 0.50186 0.515354
45 3 0.709121 0.49725 0.487907
46 5 0.710425 0.552571 0.521321
48 3 0.755557 0.507103 0.498808
49 5 0.759953 0.558585 0.463802
51 4 0.786879 0.47793 0.497175
52 3 0.817967 0.507916 0.490494
53 5 0.819527 0.560393 0.527332
4 6 0.0330595 0.482615 0.567681
55 3 0.860188 0.499809 0.492967
56 5 0.870637 0.557475 0.500296
58 4 0.887304 0.498789 0.458506
59 3 0.91463 0.505137 0.492346
60 5 0.918656 0.561596 0.519617
62 3 0.952361 0.498692 0.474325
63 5 0.961862 0.52863 0.52581
ITEM: TIMESTEP
70
ITEM: NUMBER OF ATOMS
66
ITEM: BOX BOUNDS pp pp pp
-2.3407027419979162e+01 2.3407027419979162e+01
-8.7776352824922288e+00 8.7776352824922288e+00
-8.7776352824922288e+00 8.7776352824922288e+00
ITEM: ATOMS id type xs ys zs
2 5 0.0530468 0.452002 0.470814
8 5 0.0962645 0.440392 0.489272
12 5 0.143877 0.443616 0.484165
15 5 0.189782 0.444102 0.52783
19 5 0.248145 0.445985 0.527039
22 5 0.294273 0.446299 0.474084
26 5 0.360685 0.446977 0.472464
29 5 0.40699 0.446834 0.527158
33 5 0.476672 0.447002 0.527406
36 5 0.523123 0.446458 0.47182
40 5 0.592476 0.446034 0.472077
43 5 0.639474 0.44447 0.527929
47 5 0.707548 0.443466 0.525243
50 5 0.751799 0.454934 0.456547
54 5 0.811226 0.457667 0.529043
5 7 0.0272336 0.476656 0.557334
57 5 0.856637 0.443843 0.522413
61 5 0.904169 0.458426 0.537219
64 5 0.947603 0.438449 0.4728
1 3 0.0607914 0.494349 0.514223
3 5 0.0520478 0.55132 0.492923
6 3 0.0977976 0.494374 0.525764
7 5 0.095771 0.551983 0.494553
9 4 0.122832 0.499617 0.488022
10 3 0.149331 0.49707 0.516756
11 5 0.143641 0.552621 0.487686
65 6 0.948721 0.532606 0.423902
66 7 0.970216 0.534417 0.430312
13 3 0.191291 0.499203 0.493297
14 5 0.189266 0.554762 0.527197
16 4 0.220753 0.498474 0.522372
17 3 0.250881 0.499785 0.492215
18 5 0.247859 0.553817 0.526351
20 3 0.296328 0.500527 0.509609
21 5 0.294348 0.554416 0.473819
23 4 0.328554 0.497795 0.481298
24 3 0.361144 0.500617 0.508484
25 5 0.360391 0.55392 0.472477
27 3 0.408621 0.500727 0.491371
28 5 0.407236 0.554249 0.527406
30 4 0.442271 0.497675 0.518202
31 3 0.475814 0.500699 0.491586
32 5 0.476582 0.553975 0.527709
34 3 0.524015 0.499881 0.508004
35 5 0.523353 0.553559 0.472223
37 4 0.557626 0.499313 0.480982
38 3 0.591263 0.499877 0.507748
39 5 0.592994 0.553525 0.472008
41 3 0.638765 0.496796 0.490411
42 5 0.639285 0.551276 0.525347
44 4 0.671326 0.506514 0.515258
45 3 0.703753 0.495297 0.487983
46 5 0.705199 0.550008 0.52245
48 3 0.749202 0.508354 0.493425
49 5 0.75201 0.560423 0.45579
51 4 0.779489 0.478953 0.493331
52 3 0.808853 0.508804 0.489079
53 5 0.81136 0.563054 0.527334
4 6 0.0463464 0.481601 0.568109
55 3 0.851114 0.497949 0.491068
56 5 0.857689 0.550242 0.522308
58 4 0.876998 0.502726 0.455361
59 3 0.902191 0.505005 0.491013
60 5 0.905289 0.562026 0.522234
62 3 0.938384 0.498799 0.47241
63 5 0.949986 0.523407 0.525934
ITEM: TIMESTEP
80
ITEM: NUMBER OF ATOMS
66
ITEM: BOX BOUNDS pp pp pp
-2.3407027419979162e+01 2.3407027419979162e+01
-8.7776352824922288e+00 8.7776352824922288e+00
-8.7776352824922288e+00 8.7776352824922288e+00
ITEM: ATOMS id type xs ys zs
2 5 0.0671032 0.452546 0.468978
8 5 0.110374 0.439913 0.487327
12 5 0.156459 0.443053 0.483109
15 5 0.201707 0.44412 0.529165
19 5 0.25634 0.445665 0.527734
22 5 0.302037 0.446068 0.475112
26 5 0.364563 0.446833 0.473044
29 5 0.410649 0.446645 0.526884
33 5 0.476849 0.44689 0.527048
36 5 0.523023 0.446523 0.471856
40 5 0.588651 0.446153 0.471483
43 5 0.635978 0.442447 0.528975
47 5 0.700647 0.440378 0.526077
50 5 0.744302 0.459587 0.448632
54 5 0.79883 0.462048 0.532961
5 7 0.0411354 0.48024 0.557051
57 5 0.843006 0.443618 0.530823
61 5 0.890473 0.459847 0.539924
64 5 0.932017 0.436914 0.464287
1 3 0.0748487 0.494483 0.513069
3 5 0.0663282 0.552389 0.492325
6 3 0.111497 0.49365 0.524733
7 5 0.110072 0.551652 0.493017
9 4 0.13545 0.499804 0.486696
10 3 0.161712 0.496136 0.516701
11 5 0.156174 0.552364 0.487778
65 6 0.933737 0.534329 0.422546
66 7 0.954516 0.532904 0.425093
13 3 0.202188 0.498936 0.493909
14 5 0.201052 0.554476 0.527969
16 4 0.230673 0.497932 0.524276
17 3 0.259503 0.49954 0.49302
18 5 0.255976 0.55383 0.526661
20 3 0.303543 0.500362 0.510533
21 5 0.302083 0.55444 0.475057
23 4 0.334334 0.49758 0.48109
24 3 0.365747 0.500541 0.509104
25 5 0.364243 0.554056 0.473249
27 3 0.411949 0.500638 0.491194
28 5 0.410891 0.554388 0.52706
30 4 0.444094 0.497703 0.51872
31 3 0.47647 0.500686 0.49094
32 5 0.476709 0.554177 0.52728
34 3 0.523561 0.500209 0.507797
35 5 0.523268 0.553912 0.472015
37 4 0.555887 0.498782 0.479758
38 3 0.588027 0.500513 0.507439
39 5 0.589953 0.55427 0.471108
41 3 0.634385 0.493872 0.49095
42 5 0.635463 0.548642 0.524366
44 4 0.66603 0.514663 0.509117
45 3 0.696643 0.492351 0.488288
46 5 0.698157 0.547328 0.523983
48 3 0.740668 0.508748 0.486001
49 5 0.74342 0.562616 0.454021
51 4 0.769916 0.479289 0.498798
52 3 0.798054 0.510401 0.492816
53 5 0.799554 0.565282 0.52251
4 6 0.0612985 0.481606 0.567346
55 3 0.838456 0.497496 0.496575
56 5 0.844857 0.548785 0.534734
58 4 0.863572 0.501394 0.459136
59 3 0.888705 0.505129 0.494249
60 5 0.891714 0.562998 0.522517
62 3 0.924221 0.497714 0.470798
63 5 0.936256 0.517521 0.523188
ITEM: TIMESTEP
90
ITEM: NUMBER OF ATOMS
66
ITEM: BOX BOUNDS pp pp pp
-2.3407027419979162e+01 2.3407027419979162e+01
-8.7776352824922288e+00 8.7776352824922288e+00
-8.7776352824922288e+00 8.7776352824922288e+00
ITEM: ATOMS id type xs ys zs
2 5 0.0823432 0.452727 0.466671
8 5 0.125554 0.438988 0.486428
12 5 0.170441 0.442757 0.482436
15 5 0.21502 0.443695 0.529607
19 5 0.266082 0.445359 0.527533
22 5 0.311381 0.445524 0.476071
26 5 0.369554 0.446643 0.474305
29 5 0.415414 0.44616 0.52663
33 5 0.477237 0.44684 0.525953
36 5 0.522928 0.44682 0.471809
40 5 0.584018 0.447714 0.470491
43 5 0.631554 0.439553 0.533283
47 5 0.691809 0.436868 0.530509
50 5 0.734853 0.462515 0.435466
54 5 0.785198 0.466428 0.537016
5 7 0.0568743 0.482754 0.556589
57 5 0.828504 0.443577 0.532909
61 5 0.875682 0.460421 0.545963
64 5 0.914694 0.435636 0.457241
1 3 0.090818 0.495289 0.511963
3 5 0.0818544 0.553981 0.491348
6 3 0.126444 0.49333 0.524516
7 5 0.125454 0.551591 0.492192
9 4 0.149383 0.499876 0.486223
10 3 0.175205 0.495552 0.516165
11 5 0.17017 0.551865 0.488483
65 6 0.916346 0.534451 0.423187
66 7 0.937701 0.532857 0.421203
13 3 0.214586 0.498697 0.49342
14 5 0.21423 0.554665 0.527797
16 4 0.24203 0.497496 0.525681
17 3 0.269511 0.4993 0.493363
18 5 0.265657 0.553871 0.526132
20 3 0.311866 0.500262 0.512168
21 5 0.311429 0.554718 0.476262
23 4 0.341673 0.497335 0.480581
24 3 0.371385 0.500405 0.509707
25 5 0.369207 0.554222 0.474726
27 3 0.415686 0.500595 0.490176
28 5 0.415656 0.554676 0.526649
30 4 0.446682 0.497761 0.519785
31 3 0.477493 0.500618 0.490175
32 5 0.476878 0.554214 0.526009
34 3 0.52292 0.501356 0.507534
35 5 0.523259 0.555137 0.471073
37 4 0.553493 0.495689 0.477756
38 3 0.584308 0.502747 0.5058
39 5 0.586408 0.555792 0.468961
41 3 0.629282 0.490676 0.495526
42 5 0.631018 0.544763 0.529204
44 4 0.658911 0.521153 0.488198
45 3 0.688864 0.490766 0.494412
46 5 0.690264 0.543077 0.535304
48 3 0.730355 0.506177 0.480906
49 5 0.732824 0.565261 0.453734
51 4 0.75778 0.484813 0.508274
52 3 0.786204 0.510563 0.48948
53 5 0.78629 0.569431 0.51536
4 6 0.0762279 0.481814 0.566496
55 3 0.825008 0.498534 0.502704
56 5 0.830418 0.547123 0.542261
58 4 0.848417 0.500482 0.462896
59 3 0.874433 0.504338 0.495214
60 5 0.876816 0.564729 0.52412
62 3 0.908576 0.496026 0.468838
63 5 0.921442 0.510949 0.521131
ITEM: TIMESTEP
100
ITEM: NUMBER OF ATOMS
66
ITEM: BOX BOUNDS pp pp pp
-2.3407027419979162e+01 2.3407027419979162e+01
-8.7776352824922288e+00 8.7776352824922288e+00
-8.7776352824922288e+00 8.7776352824922288e+00
ITEM: ATOMS id type xs ys zs
2 5 0.0939604 0.453202 0.465428
8 5 0.136962 0.43856 0.486686
12 5 0.181045 0.442477 0.481681
15 5 0.225132 0.443577 0.529328
19 5 0.273836 0.445 0.527141
22 5 0.31881 0.445332 0.476897
26 5 0.373629 0.446346 0.475283
29 5 0.419324 0.445858 0.526032
33 5 0.477907 0.446241 0.525063
36 5 0.52277 0.44878 0.471443
40 5 0.581713 0.451813 0.467187
43 5 0.627033 0.438375 0.537813
47 5 0.68432 0.438726 0.529677
50 5 0.72521 0.464482 0.428511
54 5 0.774549 0.46912 0.536787
5 7 0.0677677 0.48394 0.555384
57 5 0.817496 0.44316 0.533633
61 5 0.864381 0.46183 0.549041
64 5 0.901506 0.434609 0.452861
1 3 0.10193 0.495894 0.511809
3 5 0.0936603 0.554669 0.490758
6 3 0.137563 0.493366 0.524163
7 5 0.137 0.551284 0.49206
9 4 0.160065 0.499901 0.485726
10 3 0.185564 0.495286 0.516324
11 5 0.180824 0.551917 0.48877
65 6 0.904313 0.535056 0.42299
66 7 0.924506 0.533199 0.419597
13 3 0.224132 0.498414 0.493503
14 5 0.224295 0.554586 0.527168
16 4 0.250693 0.497426 0.526176
17 3 0.277438 0.499112 0.493289
18 5 0.273387 0.554016 0.525575
20 3 0.318679 0.500014 0.51242
21 5 0.318845 0.554804 0.47715
23 4 0.347181 0.497315 0.480337
24 3 0.376055 0.500226 0.510132
25 5 0.373298 0.554418 0.475855
27 3 0.418964 0.500204 0.490093
28 5 0.419565 0.554654 0.525863
30 4 0.448692 0.497874 0.51997
31 3 0.478422 0.499849 0.489382
32 5 0.476925 0.553969 0.524419
34 3 0.522456 0.504287 0.505492
35 5 0.523566 0.557154 0.468392
37 4 0.552004 0.48479 0.481439
38 3 0.581735 0.50746 0.501108
39 5 0.583942 0.559201 0.462932
41 3 0.625211 0.493109 0.504007
42 5 0.628832 0.542707 0.542723
44 4 0.653618 0.506315 0.472464
45 3 0.682309 0.496719 0.502257
46 5 0.683994 0.54067 0.549556
48 3 0.722282 0.504772 0.477915
49 5 0.724712 0.5652 0.455466
51 4 0.748776 0.490473 0.510796
52 3 0.776372 0.508749 0.486567
53 5 0.776341 0.570876 0.506079
4 6 0.0886958 0.482216 0.565669
55 3 0.81438 0.499559 0.504818
56 5 0.819042 0.546197 0.546623
58 4 0.837595 0.500475 0.46505
59 3 0.863036 0.504404 0.497585
60 5 0.865508 0.565043 0.524705
62 3 0.896137 0.494331 0.468991
63 5 0.91011 0.506416 0.519965
ITEM: TIMESTEP
0
ITEM: NUMBER OF ATOMS
66
ITEM: BOX BOUNDS pp pp pp
-2.3407027419979162e+01 2.3407027419979162e+01
-8.7776352824922288e+00 8.7776352824922288e+00
-8.7776352824922288e+00 8.7776352824922288e+00
ITEM: ATOMS id type xs ys zs
2 5 0.0939604 0.453202 0.465428
8 5 0.136962 0.43856 0.486686
9 4 0.160065 0.499901 0.485726
12 5 0.181045 0.442477 0.481681
22 5 0.31881 0.445332 0.476897
13 3 0.224132 0.498414 0.493503
17 3 0.277438 0.499112 0.493289
26 5 0.373629 0.446346 0.475283
23 4 0.347181 0.497315 0.480337
31 3 0.478422 0.499849 0.489382
36 5 0.52277 0.44878 0.471443
40 5 0.581713 0.451813 0.467187
37 4 0.552004 0.48479 0.481439
50 5 0.72521 0.464482 0.428511
64 5 0.901506 0.434609 0.452861
62 3 0.896137 0.494331 0.468991
3 5 0.0936603 0.554669 0.490758
7 5 0.137 0.551284 0.49206
11 5 0.180824 0.551917 0.48877
21 5 0.318845 0.554804 0.47715
25 5 0.373298 0.554418 0.475855
27 3 0.418964 0.500204 0.490093
35 5 0.523566 0.557154 0.468392
39 5 0.583942 0.559201 0.462932
44 4 0.653618 0.506315 0.472464
48 3 0.722282 0.504772 0.477915
49 5 0.724712 0.5652 0.455466
52 3 0.776372 0.508749 0.486567
65 6 0.904313 0.535056 0.42299
66 7 0.924506 0.533199 0.419597
58 4 0.837595 0.500475 0.46505
59 3 0.863036 0.504404 0.497585
5 7 0.0677677 0.48394 0.555384
1 3 0.10193 0.495894 0.511809
6 3 0.137563 0.493366 0.524163
4 6 0.0886958 0.482216 0.565669
15 5 0.225132 0.443577 0.529328
19 5 0.273836 0.445 0.527141
10 3 0.185564 0.495286 0.516324
16 4 0.250693 0.497426 0.526176
29 5 0.419324 0.445858 0.526032
33 5 0.477907 0.446241 0.525063
30 4 0.448692 0.497874 0.51997
43 5 0.627033 0.438375 0.537813
41 3 0.625211 0.493109 0.504007
47 5 0.68432 0.438726 0.529677
54 5 0.774549 0.46912 0.536787
57 5 0.817496 0.44316 0.533633
45 3 0.682309 0.496719 0.502257
51 4 0.748776 0.490473 0.510796
55 3 0.81438 0.499559 0.504818
61 5 0.864381 0.46183 0.549041
14 5 0.224295 0.554586 0.527168
18 5 0.273387 0.554016 0.525575
20 3 0.318679 0.500014 0.51242
24 3 0.376055 0.500226 0.510132
28 5 0.419565 0.554654 0.525863
32 5 0.476925 0.553969 0.524419
34 3 0.522456 0.504287 0.505492
38 3 0.581735 0.50746 0.501108
42 5 0.628832 0.542707 0.542723
46 5 0.683994 0.54067 0.549556
53 5 0.776341 0.570876 0.506079
56 5 0.819042 0.546197 0.546623
60 5 0.865508 0.565043 0.524705
63 5 0.91011 0.506416 0.519965
ITEM: TIMESTEP
1000
ITEM: NUMBER OF ATOMS
66
ITEM: BOX BOUNDS pp pp pp
-2.3407027419979162e+01 2.3407027419979162e+01
-8.7776352824922288e+00 8.7776352824922288e+00
-8.7776352824922288e+00 8.7776352824922288e+00
ITEM: ATOMS id type xs ys zs
2 5 0.346236 0.311211 0.535164
8 5 0.313565 0.428814 0.544529
9 4 0.348386 0.490168 0.547287
12 5 0.32389 0.566132 0.529585
22 5 0.386639 0.619383 0.39628
13 3 0.364701 0.600382 0.584191
17 3 0.396452 0.634158 0.514157
26 5 0.449481 0.573592 0.345786
23 4 0.42332 0.576073 0.41368
31 3 0.463635 0.452091 0.536442
36 5 0.501149 0.477728 0.605777
40 5 0.537963 0.396568 0.617983
37 4 0.508258 0.402204 0.531592
50 5 0.59285 0.470777 0.358343
64 5 0.694277 0.494606 0.6089
62 3 0.69274 0.483782 0.544423
3 5 0.379962 0.367805 0.545524
7 5 0.334663 0.40727 0.622898
11 5 0.322274 0.542369 0.627451
21 5 0.41893 0.681173 0.406906
25 5 0.459979 0.640223 0.426468
27 3 0.464366 0.510147 0.43884
35 5 0.484904 0.38447 0.620221
39 5 0.522932 0.313749 0.562077
44 4 0.570289 0.443808 0.512013
48 3 0.590823 0.499273 0.417509
49 5 0.569221 0.530357 0.419344
52 3 0.621535 0.566623 0.395475
65 6 0.679865 0.42812 0.532764
66 7 0.668739 0.437223 0.487546
58 4 0.664614 0.539409 0.456425
59 3 0.678285 0.554886 0.509161
5 7 0.356421 0.439752 0.456136
1 3 0.357042 0.369312 0.522218
6 3 0.33701 0.430212 0.562465
4 6 0.35928 0.384461 0.458004
15 5 0.377443 0.596886 0.638719
19 5 0.414583 0.624296 0.560038
10 3 0.338802 0.545792 0.578341
16 4 0.373744 0.609402 0.519854
29 5 0.486178 0.509988 0.411911
33 5 0.451612 0.398888 0.513782
30 4 0.468995 0.508006 0.505127
43 5 0.55559 0.357945 0.453456
41 3 0.558099 0.385668 0.512372
47 5 0.601866 0.389162 0.457296
54 5 0.611291 0.624471 0.380997
57 5 0.647096 0.644815 0.464028
45 3 0.59292 0.442051 0.486245
51 4 0.607743 0.540225 0.441476
55 3 0.650497 0.588313 0.431325
61 5 0.670668 0.590408 0.560055
14 5 0.356894 0.664663 0.588201
18 5 0.396901 0.702996 0.511016
20 3 0.407752 0.627212 0.429434
24 3 0.44807 0.584408 0.413214
28 5 0.450069 0.462608 0.407266
32 5 0.451197 0.49003 0.576423
34 3 0.491741 0.426031 0.57363
38 3 0.529705 0.377013 0.559855
42 5 0.572497 0.342115 0.544645
46 5 0.610067 0.459966 0.530028
53 5 0.626811 0.535567 0.339029
56 5 0.664925 0.601325 0.38019
60 5 0.696726 0.593253 0.489713
63 5 0.715429 0.478002 0.520868
ITEM: TIMESTEP
2000
ITEM: NUMBER OF ATOMS
66
ITEM: BOX BOUNDS pp pp pp
-2.3407027419979162e+01 2.3407027419979162e+01
-8.7776352824922288e+00 8.7776352824922288e+00
-8.7776352824922288e+00 8.7776352824922288e+00
ITEM: ATOMS id type xs ys zs
5 7 0.386398 0.468376 0.633898
4 6 0.381879 0.416996 0.650435
28 5 0.480485 0.596913 0.355517
50 5 0.548959 0.494936 0.417896