ITEM: TIMESTEP
0
ITEM: NUMBER OF ATOMS
663
ITEM: BOX BOUNDS pp pp pp
1.2258942925177916e+00 1.9359683419082572e+01
1.2587857059720395e+00 1.9326792005627880e+01
-3.8781302865724392e+00 2.4463707998170580e+01
ITEM: ATOMS id type xs ys zs
229 2 0.307154 0.221661 0.238036
65 1 0.382852 0.178284 0.243024
348 2 0.413346 0.13986 0.193151
354 1 0.434809 0.112662 0.13791
504 2 0.379209 0.154952 0.102421
528 2 0.415733 0.0218972 0.13193
525 1 0.253367 0.0247298 0.0369368
141 2 0.171496 0.0315608 0.0531071
520 2 0.259042 0.0101642 0.229379
27 2 0.210223 0.31628 0.203194
352 1 0.24031 0.274365 0.249696
104 2 0.294493 0.0919393 0.0135672
230 2 0.395675 0.333002 0.0352727
1071 4 0.403283 0.114159 0.00280415
583 3 0.445269 0.104862 0.0239971
584 4 0.399939 0.128494 0.0325108
585 4 0.440978 0.0557852 0.0364169
686 4 0.0623186 0.109397 0.229448
685 3 0.114016 0.10178 0.23424
648 4 0.390946 0.281979 0.141434
647 4 0.466989 0.26036 0.124227
646 3 0.428187 0.244824 0.144871
645 4 0.244541 0.301093 0.133871
644 4 0.298088 0.237849 0.141209
643 3 0.247125 0.248234 0.135417
642 4 0.073229 0.294391 0.146684
641 4 0.104109 0.228874 0.119881
640 3 0.116233 0.263968 0.143963
636 4 0.225591 0.0995739 0.150069
635 4 0.289116 0.0770171 0.118534
634 3 0.27515 0.112579 0.141918
633 4 0.0562739 0.104636 0.131765
632 4 0.133498 0.101551 0.151966
631 3 0.103753 0.0828733 0.126734
257 2 0.450963 0.456275 0.00511113
24 2 0.112686 0.419768 0.0684781
100 1 0.105803 0.482477 0.0280396
379 1 0.470083 0.382685 0.0340893
488 1 0.199494 0.616067 0.060299
305 2 0.235154 0.601429 0.11556
497 1 0.275378 0.591867 0.165675
472 2 0.178563 0.536814 0.0353384
168 2 0.3541 0.556418 0.17602
326 1 0.44162 0.55899 0.198016
238 2 0.467885 0.640541 0.187484
333 2 0.234537 0.614092 0.212404
162 2 0.0269196 0.529254 0.0314974
274 2 0.491226 0.498681 0.167425
278 2 0.492117 0.40894 0.088347
564 2 0.267456 0.661847 0.0342336
14 2 0.12811 0.664469 0.0543178
660 4 0.126143 0.595204 0.157625
659 4 0.0650887 0.576016 0.123309
658 3 0.102287 0.61231 0.129541
654 4 0.268717 0.470811 0.141203
653 4 0.269741 0.387134 0.143886
652 3 0.251312 0.427397 0.125371
297 2 0.0390136 0.986657 0.0860155
541 1 0.079886 0.689144 0.00636102
510 2 0.470619 0.676124 0.0219469
48 1 0.0950983 0.983661 0.0427238
5 2 0.420679 0.702689 0.109648
317 1 0.443631 0.738596 0.0598678
435 1 0.447619 0.720487 0.164099
224 2 0.246655 0.829882 0.195819
254 1 0.194315 0.821119 0.240749
394 2 0.127455 0.899196 0.0319815
220 2 0.109656 0.852462 0.231878
112 2 0.241318 0.807437 0.0203893
166 2 0.353267 0.895423 0.234072
111 1 0.355783 0.901746 0.0141929
300 1 0.299613 0.740579 0.0125522
96 2 0.368378 0.775441 0.0419554
4 2 0.349997 0.891395 0.140872
49 2 0.405135 0.926928 0.0581099
433 1 0.420629 0.936359 0.114136
110 1 0.333085 0.847483 0.187742
50 2 0.379485 0.76756 0.183722
562 2 0.284204 0.950173 0.0146042
247 2 0.496966 0.901411 0.127395
669 4 0.109322 0.769642 0.110896
668 4 0.103309 0.764491 0.164072
667 3 0.080809 0.747401 0.135529
476 2 0.44308 0.238341 0.262543
106 2 0.367642 0.118813 0.285664
536 2 0.172761 0.228497 0.274937
486 2 0.084387 0.0183337 0.362059
314 2 0.229222 0.113717 0.320344
45 2 0.078512 0.141518 0.32192
569 1 0.161721 0.172384 0.320414
461 1 0.0339963 0.0890366 0.358153
468 2 0.0377846 0.2907 0.349023
108 2 0.159415 0.220171 0.369844
399 1 0.31352 0.0798008 0.3235
28 1 0.0302846 0.305589 0.482021
441 2 0.341068 0.104509 0.378179
241 2 0.362 0.113268 0.477329
197 2 0.468861 0.123476 0.412757
236 1 0.392079 0.0855591 0.425552
11 1 0.111711 0.295698 0.380512
490 2 0.0870372 0.307562 0.435065
258 2 0.447921 0.312386 0.340559
454 2 0.329581 0.313407 0.465289
233 2 0.121862 0.0172357 0.452614
459 2 0.0150047 0.127994 0.409222
687 4 0.117228 0.0779534 0.264335
194 2 0.0101673 0.503135 0.444603
416 1 0.0321739 0.474997 0.268673
283 2 0.104142 0.517254 0.281115
153 2 0.0226029 0.38874 0.280138
76 2 0.195334 0.612272 0.306616
482 2 0.259999 0.34034 0.288818
447 2 0.166313 0.35979 0.361466
334 1 0.239277 0.388855 0.336331
387 2 0.317486 0.379981 0.365269
552 1 0.47043 0.528459 0.314126
95 2 0.456461 0.54429 0.256633
183 1 0.397448 0.381448 0.34795
413 2 0.422862 0.457911 0.329898
365 2 0.15162 0.52418 0.462345
131 2 0.113309 0.533621 0.372651
30 1 0.0844474 0.548567 0.42971
502 2 0.266122 0.601535 0.482404
505 1 0.162945 0.535112 0.32187
391 2 0.226584 0.474037 0.324066
142 2 0.452342 0.595944 0.349749
251 2 0.0718897 0.636876 0.435518
133 2 0.38768 0.658607 0.43169
19 1 0.458342 0.656729 0.392213
407 1 0.232528 0.658177 0.264343
146 1 0.338076 0.656782 0.48163
819 4 0.449501 0.399169 0.46972
818 4 0.42735 0.46634 0.441108
817 3 0.409202 0.419805 0.452321
816 4 0.30634 0.428044 0.455445
815 4 0.226211 0.42056 0.441233
814 3 0.25724 0.436772 0.466524
170 2 0.149907 0.752293 0.473069
424 1 0.120232 0.969488 0.405479
123 2 0.203782 0.94462 0.393097
200 1 0.095094 0.719977 0.434873
205 2 0.293156 0.738502 0.495632
128 1 0.292438 0.945188 0.264653
485 2 0.319678 0.990047 0.311859
219 1 0.260778 0.894055 0.418636
259 2 0.0488361 0.861936 0.314919
414 2 0.190877 0.735729 0.256936
421 2 0.230964 0.879546 0.278233
519 2 0.241599 0.865159 0.46914
508 2 0.339492 0.877696 0.401286
273 1 0.0292158 0.854528 0.256623
6 2 0.432669 0.883248 0.470144
495 2 0.402426 0.998115 0.424096
227 1 0.419773 0.912055 0.415909
53 2 0.0850904 0.762165 0.386992
173 1 0.0397364 0.835924 0.369478
211 2 0.0713265 0.895759 0.408527
404 2 0.318717 0.674404 0.27374
223 2 0.464244 0.741291 0.368093
135 2 0.488409 0.882297 0.385062
780 4 0.245603 0.76176 0.373678
779 4 0.260473 0.753542 0.321378
778 3 0.283814 0.766302 0.350558
320 2 0.141671 0.239919 0.702769
299 1 0.188262 0.289724 0.663911
177 2 0.273176 0.262084 0.659243
180 2 0.142546 0.285334 0.616907
337 2 0.0660976 0.0784736 0.672106
7 2 0.308287 0.115718 0.57369
408 1 0.281257 0.0740078 0.624552
286 2 0.194197 0.0695168 0.626742
346 2 0.314284 0.112695 0.67032
165 1 0.0126947 0.0863384 0.54464
425 1 0.135632 0.026773 0.659279
118 1 0.351671 0.276151 0.682405
559 1 0.434665 0.281196 0.586071
549 2 0.413066 0.282922 0.641373
176 2 0.376978 0.211398 0.715895
521 2 0.451989 0.0675147 0.611897
356 2 0.462494 0.199779 0.574966
477 2 0.359851 0.291809 0.557628
544 2 0.0971847 0.099843 0.528793
370 1 0.349696 0.125819 0.721937
29 1 0.29479 0.293963 0.515749
47 1 0.149649 0.0400026 0.50633
33 2 0.263906 0.210649 0.510719
99 2 0.41397 0.065267 0.732533
101 1 0.292351 0.126429 0.515611
492 2 0.0581616 0.310213 0.536361
277 2 0.00717029 0.0048904 0.566026
481 2 0.181534 0.00250147 0.706901
285 2 0.230498 0.0635104 0.503235
389 1 0.0859962 0.337786 0.589402
186 2 0.236743 0.351547 0.535384
158 2 0.230938 0.498443 0.539486
60 2 0.352978 0.352925 0.714482
87 2 0.136001 0.413159 0.585171
58 2 0.0258907 0.352991 0.633145
207 2 0.189004 0.370034 0.685855
501 2 0.284275 0.429917 0.609248
316 1 0.221447 0.422301 0.568283
373 2 0.154478 0.488414 0.732297
276 2 0.421147 0.438489 0.647795
289 1 0.353526 0.483545 0.624927
409 2 0.233798 0.64489 0.704447
51 2 0.068738 0.600436 0.617601
42 2 0.0456461 0.580444 0.711059
517 2 0.136273 0.609099 0.535599
102 1 0.31586 0.614594 0.697105
464 2 0.322575 0.543093 0.664596
547 2 0.384434 0.521518 0.576042
15 2 0.47294 0.612702 0.61277
191 1 0.437252 0.592164 0.562419
452 1 0.0160977 0.567843 0.659194
568 1 0.182781 0.402539 0.739025
550 1 0.106617 0.654393 0.58063
446 2 0.391033 0.644803 0.528596
272 1 0.195198 0.561046 0.505877
558 2 0.496452 0.417911 0.73301
444 1 0.498872 0.427684 0.675334
540 2 0.321893 0.996386 0.620857
164 1 0.40608 0.989555 0.6054
393 2 0.131727 0.960126 0.538205
499 2 0.172223 0.694817 0.608076
98 2 0.293017 0.781941 0.624811
264 1 0.208659 0.777841 0.6085
268 2 0.161582 0.81974 0.649935
445 2 0.198658 0.803237 0.554792
69 2 0.038852 0.849368 0.70462
172 1 0.122403 0.819016 0.701813
303 2 0.101211 0.95834 0.627917
119 1 0.064798 0.942024 0.577286
294 2 0.0276801 0.859641 0.576442
518 2 0.0441963 0.718302 0.566715
439 2 0.124792 0.736045 0.723678
78 2 0.404792 0.967481 0.549797
295 2 0.364179 0.684162 0.675424
498 1 0.366412 0.766505 0.654599
448 2 0.438084 0.780216 0.624789
213 2 0.444142 0.921064 0.631845
473 2 0.368471 0.825434 0.697554
406 1 0.462848 0.919242 0.520589
493 2 0.165777 0.872773 0.738359
84 1 0.420008 0.841156 0.743737
506 1 0.492053 0.850529 0.612417
570 1 0.184613 0.680676 0.748
304 2 0.49476 0.857832 0.555635
442 1 0.224652 0.790234 0.500208
897 4 0.23431 0.95726 0.566094
896 4 0.303459 0.914255 0.554089
895 3 0.252004 0.908117 0.560528
91 1 0.336208 0.311381 0.998134
376 2 0.0657692 0.0147638 0.993517
126 2 0.43637 0.0371486 0.823266
145 1 0.470904 0.0459193 0.87558
66 1 0.0216342 0.0392254 0.794959
431 2 0.0639539 0.150167 0.970238
487 1 0.120811 0.260166 0.756105
196 2 0.0418452 0.232305 0.771031
73 1 0.214043 0.0703681 0.893802
524 1 0.248634 0.169298 0.808516
44 2 0.185467 0.223243 0.788025
512 2 0.207169 0.113185 0.845331
563 2 0.308391 0.212655 0.840581
574 2 0.284022 0.122363 0.762346
40 2 0.134321 0.0523047 0.916935
189 2 0.25722 0.124351 0.929345
343 1 0.354873 0.285944 0.852925
382 2 0.41919 0.268795 0.888549
417 1 0.481834 0.205296 0.88893
384 2 0.447831 0.124425 0.898727
154 1 0.0599294 0.0672894 0.947638
325 1 0.452697 0.0122159 0.768633
221 2 0.112509 0.296801 0.966165
263 1 0.117156 0.215941 0.983999
248 2 0.0276032 0.115185 0.823758
210 1 0.27439 0.159384 0.98095
571 2 0.328569 0.227032 0.983446
557 2 0.380552 0.322649 0.804148
269 2 0.195762 0.190853 0.999813
1070 4 0.435236 0.0686203 0.962899
1069 3 0.447675 0.106367 0.985219
511 2 0.340433 0.598982 0.75129
359 2 0.0113294 0.555442 0.902608
188 2 0.123008 0.349023 0.760513
339 2 0.102991 0.43997 0.976008
375 2 0.0991551 0.63128 0.964933
266 2 0.299396 0.374006 0.969086
532 1 0.457631 0.492431 0.952508
296 2 0.38819 0.460507 0.921003
484 2 0.244511 0.469198 0.90559
59 2 0.253484 0.390183 0.770463
529 2 0.0423045 0.372936 0.900849
182 1 0.310386 0.414894 0.919561
214 2 0.305587 0.34907 0.879637
381 1 0.343672 0.385388 0.768871
322 2 0.37065 0.464626 0.785334
262 1 0.0961192 0.547299 0.752376
281 1 0.0800067 0.609922 0.909192
159 2 0.277352 0.545058 0.829499
271 1 0.235582 0.547922 0.879941
545 2 0.138824 0.616011 0.773633
287 2 0.274833 0.612371 0.910091
500 2 0.148819 0.570036 0.88086
235 1 0.350926 0.55079 0.799516
225 2 0.417791 0.585471 0.827654
103 2 0.0456212 0.500308 0.787163
8 2 0.469413 0.583046 0.958398
460 1 0.0627393 0.370303 0.956355
195 2 0.323841 0.727903 0.862334
321 2 0.112232 0.767452 0.989938
451 1 0.171365 0.957447 0.758344
310 2 0.100608 0.993734 0.785593
201 1 0.167989 0.823076 0.899173
514 1 0.0194253 0.761658 0.876123
308 1 0.281428 0.698138 0.909782
555 2 0.456661 0.97308 0.908104
340 2 0.242814 0.721504 0.782952
143 2 0.24645 0.955215 0.794843
231 2 0.0816322 0.821936 0.886058
192 1 0.274094 0.926513 0.846257
237 1 0.418012 0.891365 0.909558
169 2 0.0570679 0.681713 0.879427
429 2 0.257434 0.992098 0.885853
184 2 0.215256 0.859579 0.856068
139 2 0.178991 0.870179 0.946027
267 2 0.202785 0.741875 0.907044
37 1 0.314553 0.749644 0.810099
32 2 0.418367 0.930739 0.758935
288 2 0.379736 0.880057 0.961482
368 2 0.378515 0.791412 0.784362
566 2 0.465142 0.821663 0.893992
311 2 0.355452 0.899582 0.864843
539 2 0.31841 0.726453 0.958014
134 2 0.497512 0.698216 0.85037
361 1 0.164901 0.839454 0.998473
290 1 0.591612 0.181593 0.0833796
440 2 0.563464 0.196845 0.0289458
367 2 0.603801 0.263431 0.108245
171 2 0.672024 0.14025 0.0850858
12 1 0.761818 0.147002 0.0821225
298 1 0.843844 0.273584 0.137634
179 2 0.874766 0.262123 0.190575
67 2 0.790551 0.160715 0.029075
97 2 0.803054 0.0708964 0.100915
54 2 0.793244 0.211985 0.116112
116 2 0.524339 0.135204 0.115725
246 1 0.876302 0.236738 0.248611
556 2 0.529798 0.330804 0.00530754
1123 3 0.910253 0.10312 0.0218945
1124 4 0.94187 0.0608646 0.0194953
1125 4 0.922881 0.125151 0.0515273
1227 4 0.581555 0.127254 0.225134
1226 4 0.597165 0.054769 0.249997
1179 4 0.892571 0.124705 0.138629
1178 4 0.966269 0.0854922 0.14082
1177 3 0.916185 0.0788481 0.131032
306 2 0.86015 0.339884 0.103429
513 2 0.620214 0.4499 0.125714
462 1 0.533168 0.448519 0.131485
328 2 0.903867 0.466862 0.0568347
388 1 0.693115 0.494632 0.113182
336 1 0.836546 0.406837 0.0652518
358 2 0.75578 0.442732 0.0873815
374 2 0.841215 0.364413 0.0109209
335 1 0.933526 0.528169 0.0218942
546 2 0.767873 0.650521 0.19024
151 2 0.896621 0.605252 0.0359185
46 1 0.748892 0.574126 0.215816
43 2 0.726041 0.521422 0.170082
396 2 0.671099 0.560393 0.0782381
523 1 0.671264 0.584417 0.0221248
130 2 0.820673 0.550668 0.246393
222 2 0.721454 0.659407 0.0203232
385 2 0.590138 0.609116 0.00364813
1245 4 0.567843 0.434868 0.221223
1206 4 0.890975 0.619407 0.131026
1205 4 0.965313 0.589478 0.146093
1204 3 0.918747 0.574505 0.133371
1200 4 0.621398 0.625958 0.129484
1199 4 0.575584 0.556064 0.13242
1198 3 0.585421 0.601469 0.148642
347 2 0.872615 0.979955 0.166899
470 1 0.819294 0.99431 0.123881
190 1 0.909119 0.699913 0.0315235
20 1 0.550554 0.83011 0.119085
575 2 0.610455 0.876868 0.230482
270 2 0.635573 0.853103 0.113668
10 1 0.888987 0.956283 0.223746
307 1 0.764061 0.736012 0.195668
114 2 0.895803 0.733452 0.0827532
212 2 0.746532 0.789277 0.154848
372 1 0.723818 0.840868 0.109531
531 2 0.820906 0.897979 0.234832
522 2 0.773703 0.919708 0.109431
503 2 0.74539 0.790725 0.0642407
215 2 0.522463 0.76739 0.156063
92 1 0.73289 0.746068 0.017391
465 2 0.774895 0.765144 0.246472
121 2 0.994166 0.704179 0.0167928
80 2 0.51333 0.790703 0.070055
193 2 0.970326 0.919247 0.233697
1167 4 0.727834 0.955593 0.028637
1166 4 0.800816 0.916494 0.0358115
1165 3 0.750062 0.907543 0.028493
1164 4 0.597689 0.963681 0.0449697
1163 4 0.609263 0.887692 0.0237172
1162 3 0.575414 0.928335 0.0242388
68 2 0.982649 0.22909 0.474678
449 2 0.880558 0.0224173 0.2625
401 2 0.920264 0.157864 0.256129
422 2 0.791286 0.21774 0.263648
390 1 0.753968 0.174937 0.309637
79 2 0.916579 0.296552 0.281564
261 2 0.688392 0.110658 0.306948
507 1 0.901489 0.0912671 0.294858
242 2 0.726997 0.244746 0.341965
292 2 0.589953 0.0659832 0.371052
551 1 0.541706 0.143578 0.381327
554 2 0.595318 0.190366 0.413754
26 2 0.696778 0.289287 0.423091
228 1 0.653758 0.0355491 0.334677
561 1 0.664382 0.210363 0.445745
35 2 0.956903 0.0666851 0.335226
147 1 0.963498 0.150538 0.455089
434 1 0.801647 0.102739 0.455587
402 2 0.875244 0.149141 0.440644
483 2 0.726243 0.142243 0.437321
467 2 0.811318 0.0227069 0.431222
243 2 0.828923 0.129131 0.324125
455 2 0.567513 0.308155 0.281714
1 1 0.71658 0.322922 0.37021
312 2 0.640793 0.225237 0.498361
88 2 0.965438 0.0947889 0.497594
418 2 0.523548 0.188303 0.334795
533 1 0.503183 0.26409 0.304935
1225 3 0.603752 0.107126 0.25296
534 1 0.979879 0.336588 0.317987
150 2 0.688818 0.595551 0.257535
360 2 0.957192 0.518122 0.261593
21 1 0.885342 0.547307 0.287598
16 2 0.903083 0.622099 0.316795
509 2 0.852753 0.490217 0.329277
208 1 0.628571 0.47132 0.355268
351 2 0.555093 0.499747 0.322327
395 2 0.659671 0.386683 0.351287
309 1 0.93637 0.453137 0.464531
438 2 0.874111 0.46205 0.423494
174 1 0.857028 0.427611 0.372075
107 2 0.604808 0.48576 0.408346
548 2 0.797563 0.362273 0.37083
538 2 0.935958 0.389953 0.355541
463 2 0.691007 0.529908 0.34043
136 1 0.689618 0.609106 0.31565
458 2 0.970221 0.370625 0.474451
457 2 0.767275 0.655605 0.325217
341 2 0.537982 0.650822 0.415094
187 2 0.629333 0.660044 0.342927
542 1 0.710502 0.660988 0.485929
1244 4 0.627497 0.408321 0.25454
1243 3 0.58707 0.442208 0.252326
120 1 0.614192 0.68814 0.396519
363 1 0.70949 0.959033 0.497857
17 2 0.953849 0.833013 0.383102
553 2 0.564935 0.839941 0.313463
323 2 0.981833 0.776499 0.255233
113 2 0.718594 0.99138 0.365792
397 1 0.844522 0.675134 0.342889
167 2 0.821457 0.883862 0.399218
39 1 0.767227 0.954671 0.406521
378 2 0.710229 0.860344 0.299754
516 1 0.627085 0.887978 0.285565
345 1 0.787349 0.841042 0.275428
252 2 0.679324 0.671958 0.435014
226 1 0.868423 0.826078 0.370177
152 2 0.709967 0.923759 0.448665
560 1 0.528694 0.809248 0.363572
13 2 0.594731 0.774062 0.393967
115 2 0.857084 0.740021 0.377285
140 2 0.622617 0.975195 0.299755
400 2 0.851268 0.836085 0.315119
1386 4 0.90825 0.911732 0.477965
1385 4 0.935782 0.95915 0.437603
1384 3 0.931049 0.908752 0.447564
1377 4 0.966333 0.768497 0.460388
1376 4 0.885407 0.748026 0.46178
1375 3 0.923312 0.765076 0.44094
156 1 0.590846 0.173147 0.693216
62 2 0.550321 0.159486 0.644092
419 2 0.538672 0.206941 0.732437
203 2 0.619676 0.0939284 0.710842
198 2 0.618215 0.274437 0.586527
209 1 0.612457 0.0130369 0.72921
405 2 0.667053 0.223563 0.683642
392 2 0.560542 0.106887 0.554052
74 1 0.981888 0.0740571 0.688954
109 1 0.913972 0.167098 0.615882
234 2 0.935586 0.142458 0.668597
427 2 0.844199 0.120586 0.599388
64 1 0.735453 0.274261 0.695596
117 2 0.732652 0.19598 0.564709
411 2 0.897685 0.251915 0.614538
255 1 0.772796 0.113683 0.567032
313 2 0.797257 0.232301 0.730076
327 1 0.675641 0.25774 0.545951
436 2 0.7304 0.0444679 0.58976
280 1 0.583489 0.0286241 0.531774
41 2 0.77142 0.307103 0.647042
83 1 0.850832 0.327143 0.625578
466 2 0.984172 0.0676241 0.746757
275 2 0.792364 0.0907046 0.512354
94 2 0.984594 0.147118 0.582724
576 2 0.65554 0.0269479 0.50159
543 1 0.50817 0.131894 0.595409
61 2 0.705755 0.34163 0.530415
437 2 0.702134 0.340762 0.727499
253 1 0.57509 0.348563 0.600713
122 2 0.642238 0.41024 0.593451
239 2 0.552279 0.363245 0.655082
9 2 0.854536 0.379863 0.579201
349 2 0.893095 0.375862 0.66463
291 1 0.846644 0.465886 0.55972
471 1 0.54652 0.585028 0.642777
423 2 0.608422 0.578257 0.602054
353 1 0.598105 0.561509 0.542374
319 2 0.539614 0.505193 0.667206
218 1 0.852788 0.597173 0.636123
430 2 0.935011 0.608295 0.657114
250 2 0.797199 0.59462 0.681524
217 1 0.759865 0.566205 0.729947
450 2 0.85433 0.521411 0.605518
178 2 0.761125 0.472649 0.545962
34 2 0.628415 0.483742 0.522459
132 2 0.671878 0.595306 0.733932
155 1 0.596069 0.640907 0.739048
331 2 0.900428 0.476441 0.515661
55 1 0.686106 0.423893 0.545468
216 2 0.559841 0.642006 0.686152
420 2 0.831444 0.66087 0.595846
204 2 0.651137 0.624988 0.519168
330 2 0.751325 0.477243 0.730523
93 1 0.975809 0.400505 0.671294
18 2 0.509682 0.566504 0.533505
456 2 0.919544 0.635151 0.517916
410 2 0.99678 0.484807 0.653101
206 2 0.500261 0.342808 0.572691
572 2 0.986483 0.402518 0.727925
342 2 0.5032 0.816845 0.736348
124 2 0.94469 0.99695 0.67191
265 2 0.747085 0.924853 0.543443
324 2 0.788028 0.695391 0.504802
344 1 0.634715 0.883575 0.664027
293 2 0.570576 0.84237 0.634016
185 2 0.602056 0.959208 0.683038
125 2 0.649447 0.841184 0.711313
355 2 0.594979 0.97311 0.575126
245 1 0.86086 0.691829 0.542718
232 2 0.913422 0.762679 0.556448
474 2 0.971451 0.773781 0.640549
369 2 0.806224 0.980338 0.703696
494 2 0.708078 0.906612 0.631151
478 1 0.754799 0.959314 0.595854
496 1 0.871075 0.946269 0.670921
318 1 0.956495 0.807018 0.692395
491 2 0.893542 0.867994 0.690357
36 2 0.836781 0.948132 0.618581
279 2 0.938362 0.745609 0.733704
82 1 0.987344 0.781574 0.585247
52 2 0.521541 0.981575 0.502475
1482 4 0.788007 0.769291 0.686052
1481 4 0.72173 0.767191 0.653598
1480 3 0.769044 0.745043 0.658584
1425 4 0.580101 0.742592 0.583669
1424 4 0.596679 0.794009 0.542848
1423 3 0.605699 0.744924 0.55417
479 1 0.779531 0.0103801 0.75405
77 2 0.801718 0.0954736 0.758016
148 2 0.5076 0.206904 0.833073
175 2 0.893087 0.243249 0.984661
23 2 0.651181 0.271049 0.96963
526 2 0.558728 0.0466244 0.868689
480 1 0.642334 0.0272016 0.882336
160 2 0.559109 0.318652 0.787677
515 1 0.555539 0.231044 0.786205
31 2 0.636903 0.197117 0.792498
475 2 0.666631 0.222014 0.879607
57 1 0.992605 0.197013 0.813951
398 1 0.705489 0.259611 0.925355
527 2 0.983042 0.0546092 0.92256
157 2 0.771386 0.202228 0.821058
86 2 0.691021 0.086035 0.851142
364 2 0.908032 0.184447 0.791681
469 1 0.691188 0.170815 0.835893
127 1 0.894538 0.0314012 0.929714
362 1 0.820778 0.178844 0.774658
81 2 0.650923 0.0470133 0.93668
149 2 0.860524 0.103827 0.956998
357 2 0.77517 0.212176 0.939182
426 1 0.829297 0.177802 0.977436
380 1 0.565382 0.254356 0.985475
144 2 0.865207 0.0248006 0.876531
129 1 0.903017 0.330723 0.973839
302 2 0.530767 0.228077 0.935368
315 2 0.540625 0.0110753 0.763744
329 2 0.988204 0.253223 0.856111
38 1 0.502526 0.613156 0.828104
443 1 0.973328 0.342124 0.873207
386 2 0.907446 0.338345 0.915965
573 2 0.731591 0.339819 0.903917
535 2 0.987417 0.356122 0.985912
72 2 0.52792 0.461123 0.924618
489 1 0.522291 0.646771 0.980024
249 2 0.623528 0.445279 0.766802
244 1 0.546977 0.406506 0.778825
56 1 0.56364 0.479871 0.874461
301 2 0.524027 0.438725 0.830896
530 2 0.647765 0.453513 0.875549
565 2 0.7391 0.399262 0.812842
163 1 0.713404 0.400401 0.865894
332 2 0.958207 0.392934 0.824498
138 1 0.70577 0.414119 0.757607
202 2 0.89932 0.637085 0.930155
89 2 0.555319 0.565546 0.862111
70 2 0.536378 0.607814 0.774709
90 2 0.877299 0.543567 0.865093
3 1 0.926183 0.555024 0.913934
567 2 0.930047 0.643544 0.8033
415 1 0.875907 0.569834 0.80745
161 2 0.801989 0.591359 0.780019
25 2 0.906782 0.502401 0.776795
63 2 0.915573 0.510945 0.963564
75 1 0.973763 0.443194 0.777831
537 2 0.706091 0.52015 0.99003
412 2 0.52993 0.713811 0.94043
256 2 0.688463 0.997553 0.758273
2 1 0.595528 0.808224 0.751887
22 2 0.988503 0.770729 0.821284
432 2 0.858615 0.732858 0.988976
85 2 0.870612 0.88336 0.857872
282 1 0.651228 0.855388 0.850264
350 2 0.655876 0.935961 0.873308
181 1 0.880188 0.724194 0.933277
260 2 0.613964 0.855064 0.798114
338 2 0.604242 0.79155 0.878889
377 2 0.850758 0.764546 0.806247
383 2 0.73435 0.830113 0.843857
428 2 0.82268 0.968042 0.794552
366 2 0.694089 0.793618 0.979025
105 2 0.611094 0.722998 0.759242
199 1 0.52648 0.75909 0.890237
453 1 0.883507 0.965095 0.836473
403 2 0.820547 0.753635 0.896226
71 2 0.966848 0.980126 0.819435
371 1 0.819175 0.810794 0.852128
240 2 0.955177 0.766775 0.916468
137 1 0.926035 0.731356 0.789055
284 2 0.885362 0.955665 0.957501
1651 3 0.755545 0.930061 0.997009
1650 4 0.568542 0.961305 0.982315
1649 4 0.631534 0.907774 0.990328
1648 3 0.582316 0.910562 0.978253
1652 4 0.73468 0.955157 0.97043
1653 4 0.788508 0.894495 0.983527
ITEM: TIMESTEP
1000
ITEM: NUMBER OF ATOMS
663
ITEM: BOX BOUNDS pp pp pp
1.2258942925177916e+00 1.9359683419082572e+01
1.2587857059720395e+00 1.9326792005627880e+01
-3.8781302865724392e+00 2.4463707998170580e+01
ITEM: ATOMS id type xs ys zs
229 2 0.289476 0.223196 0.252336
65 1 0.347429 0.224461 0.378282
348 2 0.325359 0.307054 0.139546
91 1 0.336274 0.309873 0.000671615
504 2 0.346816 0.185188 0.110121
528 2 0.41203 0.0144469 0.136011
525 1 0.254481 0.0237145 0.0365696
141 2 0.173577 0.0293172 0.0510983
520 2 0.263909 0.00728788 0.230367
27 2 0.21107 0.31868 0.207732
352 1 0.233795 0.277951 0.250435
104 2 0.292423 0.0897329 0.0129657
230 2 0.398023 0.333467 0.0335641
778 3 0.285077 0.763319 0.350092
583 3 0.457906 0.039833 0.0372191
584 4 0.411177 0.0631961 0.0322284
585 4 0.449022 0.988536 0.0309793
686 4 0.0600416 0.110907 0.228918
685 3 0.110998 0.0970829 0.22893
648 4 0.390957 0.290012 0.133315
647 4 0.465198 0.270916 0.112132
646 3 0.441495 0.28173 0.141511
645 4 0.223425 0.294831 0.133305
644 4 0.267451 0.223806 0.136402
643 3 0.222138 0.243668 0.124581
642 4 0.0700576 0.295924 0.142365
641 4 0.106073 0.230287 0.118462
640 3 0.112158 0.264092 0.144173
636 4 0.219722 0.0900961 0.147825
635 4 0.290726 0.0785449 0.120712
634 3 0.268735 0.109049 0.144471
633 4 0.0556589 0.106553 0.131606
632 4 0.127943 0.108284 0.158309
631 3 0.105144 0.0881717 0.130678
257 2 0.452967 0.457832 0.00447876
24 2 0.112046 0.422029 0.0673629
100 1 0.106402 0.483315 0.0293346
379 1 0.46948 0.381753 0.0333259
488 1 0.210928 0.614399 0.0527317
305 2 0.238967 0.601589 0.117084
497 1 0.276632 0.595277 0.166745
472 2 0.179774 0.537947 0.0365078
168 2 0.352593 0.55559 0.176082
326 1 0.43801 0.556126 0.198129
238 2 0.463666 0.64284 0.188976
333 2 0.233615 0.616014 0.212373
162 2 0.0272094 0.529085 0.031138
274 2 0.490582 0.498228 0.166704
278 2 0.49107 0.408697 0.0878078
564 2 0.268203 0.666329 0.0353307
14 2 0.129335 0.665461 0.0500644
660 4 0.123068 0.58841 0.159918
659 4 0.0652005 0.568606 0.123545
658 3 0.08684 0.609909 0.139534
654 4 0.269378 0.468734 0.139812
653 4 0.265402 0.385595 0.145944
652 3 0.251583 0.424667 0.12492
297 2 0.0426862 0.982217 0.0841322
541 1 0.0799967 0.690821 0.00673387
510 2 0.471503 0.67993 0.0230488
48 1 0.0955203 0.979689 0.041454
5 2 0.422934 0.706007 0.110487
317 1 0.443253 0.738813 0.0589571
435 1 0.447337 0.721793 0.163738
224 2 0.247358 0.82888 0.196715
254 1 0.194101 0.822358 0.240725
394 2 0.127511 0.89966 0.0314458
220 2 0.112036 0.850536 0.232697
112 2 0.241761 0.805558 0.0193544
166 2 0.352038 0.89793 0.235037
111 1 0.355621 0.901858 0.0145912
300 1 0.300455 0.739594 0.0133412
96 2 0.368796 0.773939 0.0397497
4 2 0.350733 0.893869 0.14159
49 2 0.400832 0.924992 0.0585359
433 1 0.412559 0.929889 0.117785
110 1 0.333347 0.848316 0.187357
50 2 0.380812 0.77131 0.183978
562 2 0.285555 0.951656 0.0166956
247 2 0.492863 0.896949 0.130405
669 4 0.109072 0.771336 0.110988
668 4 0.101604 0.768645 0.164162
667 3 0.0803299 0.749668 0.135719
476 2 0.444897 0.240359 0.267434
106 2 0.369562 0.10582 0.290015
536 2 0.172567 0.226147 0.278307
486 2 0.0876403 0.0186242 0.366455
314 2 0.231279 0.114181 0.320501
45 2 0.0801633 0.138211 0.32298
569 1 0.162829 0.17504 0.324699
461 1 0.0342163 0.0880803 0.36009
468 2 0.0377664 0.294551 0.348664
108 2 0.160099 0.222848 0.368929
399 1 0.312265 0.0764995 0.322617
28 1 0.0297288 0.3051 0.481933
441 2 0.341166 0.103744 0.378302
241 2 0.360503 0.111304 0.476813
197 2 0.468728 0.126577 0.409973
236 1 0.39295 0.0866241 0.425407
11 1 0.110213 0.294454 0.381113
490 2 0.0890607 0.307897 0.436032
258 2 0.448599 0.313114 0.340814
454 2 0.12624 0.0798793 0.43651
233 2 0.122043 0.016498 0.454815
459 2 0.0134921 0.127636 0.409994
687 4 0.119429 0.0775561 0.259859
194 2 0.00957694 0.501917 0.442056
416 1 0.0319232 0.475188 0.269094
283 2 0.102879 0.515707 0.282453
153 2 0.0230002 0.394026 0.281049
76 2 0.196304 0.612569 0.305542
482 2 0.259928 0.339632 0.29009
447 2 0.166327 0.358784 0.361438
334 1 0.240372 0.388264 0.335206
387 2 0.316492 0.377547 0.364308
552 1 0.468528 0.527364 0.313385
95 2 0.457292 0.545292 0.256456
183 1 0.396394 0.378786 0.34433
413 2 0.422481 0.4584 0.331656
365 2 0.149254 0.528297 0.462415
131 2 0.111884 0.535832 0.372398
30 1 0.0833267 0.547246 0.429149
502 2 0.26623 0.602723 0.48358
505 1 0.162387 0.535125 0.322677
391 2 0.226897 0.474213 0.323902
142 2 0.450852 0.598317 0.349521
251 2 0.0727014 0.636117 0.434898
133 2 0.384972 0.655664 0.4334
19 1 0.456263 0.658444 0.391833
407 1 0.231718 0.658492 0.262634
146 1 0.33625 0.656461 0.482941
356 2 0.473761 0.121667 0.45124
442 1 0.219193 0.78218 0.49601
779 4 0.264122 0.754217 0.319642
816 4 0.31064 0.413658 0.448576
815 4 0.230608 0.412824 0.433381
814 3 0.262975 0.432139 0.457049
170 2 0.1495 0.752883 0.471286
424 1 0.120416 0.970478 0.406453
123 2 0.202429 0.942876 0.395831
200 1 0.0975017 0.717883 0.433607
205 2 0.294285 0.736443 0.494055
128 1 0.289832 0.948177 0.263565
485 2 0.318522 0.990628 0.312016
219 1 0.261562 0.89899 0.421642
259 2 0.0489837 0.862733 0.314809
414 2 0.192541 0.737693 0.258707
421 2 0.234139 0.881164 0.277545
519 2 0.23856 0.862914 0.468386
508 2 0.340328 0.878012 0.401345
273 1 0.0273077 0.853449 0.256929
6 2 0.435377 0.885086 0.471444
495 2 0.402563 0.997224 0.424309
227 1 0.419469 0.909729 0.417404
53 2 0.081618 0.762206 0.386911
173 1 0.0401137 0.835979 0.367784
211 2 0.0751077 0.895312 0.406145
404 2 0.315208 0.675629 0.273809
223 2 0.466589 0.742133 0.366068
135 2 0.484418 0.879845 0.38494
780 4 0.244412 0.759074 0.371456
320 2 0.141084 0.242664 0.702522
299 1 0.187372 0.288721 0.66333
177 2 0.268588 0.260199 0.658934
180 2 0.142689 0.286319 0.616427
337 2 0.0675221 0.0740248 0.672711
7 2 0.305006 0.113128 0.571773
408 1 0.282643 0.0758831 0.624409
286 2 0.195698 0.0684478 0.62788
346 2 0.314045 0.108741 0.671271
165 1 0.0108473 0.08704 0.544224
425 1 0.136731 0.0235056 0.659597
118 1 0.352215 0.278761 0.680723
559 1 0.410079 0.312233 0.58266
549 2 0.396714 0.303931 0.6413
176 2 0.327286 0.219412 0.717273
521 2 0.449149 0.0666327 0.611513
817 3 0.417104 0.373686 0.514489
477 2 0.354932 0.290899 0.555974
544 2 0.0962681 0.0977282 0.529823
370 1 0.351152 0.125248 0.720087
29 1 0.253129 0.255869 0.537722
47 1 0.147017 0.0399486 0.505449
33 2 0.264886 0.19588 0.514333
99 2 0.411245 0.0650394 0.731297
101 1 0.291521 0.128032 0.516893
492 2 0.0584201 0.312196 0.538695
277 2 0.00800234 0.00566815 0.564667
481 2 0.177539 0.00372078 0.70832
285 2 0.231674 0.0652128 0.50521
389 1 0.086041 0.338005 0.590786
186 2 0.23565 0.350159 0.53556
158 2 0.22621 0.499275 0.539947
60 2 0.351748 0.351679 0.715077
87 2 0.137543 0.412278 0.583689
58 2 0.0263807 0.35205 0.633593
207 2 0.19023 0.369345 0.686571
501 2 0.285888 0.432554 0.608479
316 1 0.219702 0.42355 0.570986
373 2 0.156598 0.487506 0.732698
276 2 0.421246 0.44002 0.647957
289 1 0.352808 0.481622 0.624533
409 2 0.232538 0.644333 0.705808
51 2 0.0694117 0.600818 0.619743
42 2 0.0459079 0.578769 0.711116
517 2 0.133776 0.608437 0.537629
102 1 0.315242 0.61407 0.697925
464 2 0.322689 0.542585 0.663936
547 2 0.384928 0.523323 0.577996
15 2 0.473543 0.612772 0.612701
191 1 0.43585 0.59034 0.562808
452 1 0.0149543 0.568455 0.657777
568 1 0.182146 0.4034 0.737296
550 1 0.103956 0.654815 0.580323
446 2 0.39143 0.643648 0.526887
272 1 0.190524 0.570591 0.50896
558 2 0.496587 0.417027 0.732538
1071 4 0.460951 0.0993215 0.96515
540 2 0.323789 0.998606 0.621916
164 1 0.406717 0.993075 0.605234
393 2 0.12828 0.964395 0.537698
499 2 0.174389 0.693668 0.606038
98 2 0.293394 0.781619 0.623804
264 1 0.204417 0.772145 0.612547
268 2 0.161938 0.818989 0.650288
445 2 0.197825 0.794516 0.553333
69 2 0.0377807 0.846631 0.703771
172 1 0.122245 0.819633 0.701121
303 2 0.102622 0.960674 0.62709
119 1 0.0649182 0.943394 0.577544
294 2 0.0283905 0.861537 0.576487
518 2 0.0448491 0.715433 0.569115
439 2 0.126797 0.737571 0.723385
78 2 0.404401 0.964525 0.550868