ITEM: TIMESTEP
0
ITEM: NUMBER OF ATOMS
636
ITEM: BOX BOUNDS pp pp pp
9.1077752210156504e-01 1.9674800189498932e+01
2.1092682236518137e+00 1.8476309487947546e+01
-4.1701120819606885e+00 2.4755689793560968e+01
ITEM: ATOMS id type xs ys zs
104 2 0.301395 0.0495311 0.0233875
297 2 0.0544969 0.0372334 0.0943731
24 2 0.125695 0.411429 0.0771898
100 1 0.119043 0.480656 0.0375676
48 1 0.108698 0.0339263 0.0519555
595 3 0.124801 0.222508 0.0461518
596 4 0.134198 0.276365 0.0347834
597 4 0.0750762 0.214224 0.0404424
726 4 0.263324 0.462924 0.156062
725 4 0.297749 0.389394 0.133489
724 3 0.252525 0.410681 0.142942
708 4 0.259183 0.283405 0.145105
707 4 0.293466 0.201089 0.153778
706 3 0.26098 0.228625 0.133575
705 4 0.111159 0.24697 0.170675
704 4 0.0944147 0.217674 0.122235
703 3 0.128516 0.248548 0.139571
348 2 0.416257 0.102432 0.199345
354 1 0.436999 0.0724077 0.14522
504 2 0.383266 0.119093 0.110447
257 2 0.45261 0.451731 0.0151021
230 2 0.399179 0.315646 0.0446547
379 1 0.471088 0.370493 0.0434953
274 2 0.491521 0.498544 0.174139
278 2 0.492382 0.399477 0.0966576
290 1 0.588535 0.148502 0.0917905
440 2 0.561332 0.16534 0.0384556
367 2 0.600315 0.238846 0.116153
171 2 0.666247 0.102862 0.0934622
116 2 0.523521 0.0972917 0.123483
556 2 0.528797 0.313221 0.0152946
513 2 0.616176 0.444693 0.133271
462 1 0.532054 0.443169 0.138924
711 4 0.441578 0.222413 0.168844
710 4 0.436567 0.238228 0.117379
709 3 0.415104 0.252566 0.146282
12 1 0.753024 0.110316 0.0905588
298 1 0.832296 0.250054 0.14495
179 2 0.862178 0.237401 0.196822
67 2 0.780792 0.125455 0.0385822
97 2 0.792875 0.0263013 0.108972
54 2 0.783395 0.182053 0.123862
306 2 0.848054 0.323244 0.111435
328 2 0.890302 0.463418 0.0657814
388 1 0.686629 0.494075 0.120991
336 1 0.825242 0.397155 0.0740287
358 2 0.747189 0.43678 0.0957116
374 2 0.829755 0.350322 0.0207946
347 2 0.8601 0.0298346 0.173624
470 1 0.80857 0.0456822 0.131474
592 3 0.897678 0.0390532 0.0345095
593 4 0.937499 0.0266992 0.0539748
594 4 0.897007 0.0974579 0.0328503
684 4 0.885108 0.008386 0.0423654
525 1 0.261651 0.975337 0.0462853
141 2 0.18253 0.982878 0.0621291
488 1 0.209587 0.628129 0.0691758
305 2 0.24405 0.61197 0.123321
497 1 0.282923 0.601414 0.172425
472 2 0.189359 0.54064 0.0447191
162 2 0.0428091 0.532294 0.0409557
564 2 0.275267 0.678667 0.0436366
14 2 0.140601 0.681562 0.0633154
541 1 0.0939965 0.7088 0.0163268
394 2 0.139968 0.940682 0.04143
112 2 0.250007 0.839388 0.0300719
300 1 0.306344 0.765581 0.022393
562 2 0.291452 0.996958 0.0244036
759 4 0.138896 0.809335 0.128058
758 4 0.0726115 0.772936 0.149648
757 3 0.122559 0.780512 0.154831
528 2 0.418564 0.97221 0.139361
168 2 0.359001 0.562282 0.182561
238 2 0.468963 0.655147 0.193793
510 2 0.471606 0.694428 0.031598
5 2 0.423343 0.723754 0.117529
317 1 0.445524 0.763392 0.0687533
435 1 0.449379 0.743401 0.17088
111 1 0.360627 0.943498 0.0240005
96 2 0.372799 0.804066 0.0512026
4 2 0.355035 0.932071 0.148122
49 2 0.408321 0.971297 0.067031
433 1 0.423295 0.981708 0.121926
110 1 0.338692 0.883596 0.194046
50 2 0.383533 0.795366 0.190107
247 2 0.497068 0.943128 0.134917
396 2 0.665352 0.566669 0.0867528
523 1 0.665512 0.59319 0.0317723
20 1 0.548856 0.864417 0.126775
270 2 0.631019 0.8898 0.121468
215 2 0.521708 0.795179 0.163007
80 2 0.512882 0.820915 0.0787349
385 2 0.587111 0.620456 0.0136686
678 4 0.560863 0.98362 0.0232307
677 4 0.619367 0.981733 0.059255
676 3 0.592726 0.947254 0.038865
335 1 0.918965 0.531096 0.0315463
546 2 0.758876 0.666164 0.196493
151 2 0.883299 0.61619 0.0452875
43 2 0.718449 0.523648 0.176742
222 2 0.714016 0.675973 0.030007
190 1 0.895378 0.720689 0.0409813
114 2 0.882509 0.757714 0.0911767
212 2 0.738252 0.81934 0.161816
372 1 0.716301 0.876293 0.117414
522 2 0.76451 0.963327 0.117316
503 2 0.737148 0.820939 0.0730379
92 1 0.725067 0.771641 0.0271341
121 2 0.977568 0.725398 0.0265479
756 4 0.889638 0.64493 0.14796
755 4 0.946423 0.580642 0.14027
754 3 0.896117 0.587288 0.144268
683 4 0.949022 0.95229 0.0387991
682 3 0.898056 0.951949 0.0401911
229 2 0.313631 0.192735 0.243325
27 2 0.219956 0.297187 0.209186
352 1 0.249032 0.250916 0.254749
536 2 0.183752 0.200281 0.279481
314 2 0.238317 0.0735718 0.323971
45 2 0.0926687 0.104263 0.325515
569 1 0.173083 0.138336 0.32404
461 1 0.0496481 0.0463267 0.361017
468 2 0.0533092 0.268948 0.352071
108 2 0.170854 0.191089 0.372471
399 1 0.319783 0.0361311 0.327063
11 1 0.124752 0.274466 0.382925
416 1 0.0478869 0.472399 0.273343
153 2 0.0386374 0.377177 0.284577
482 2 0.26806 0.323747 0.293082
447 2 0.177521 0.345219 0.364262
334 1 0.248034 0.377304 0.339635
387 2 0.323616 0.367507 0.367989
391 2 0.235767 0.471338 0.327618
485 2 0.325735 0.0409762 0.315657
65 1 0.386787 0.14485 0.248212
476 2 0.444992 0.211147 0.267337
106 2 0.372087 0.0791979 0.289991
441 2 0.346406 0.0634066 0.380639
258 2 0.44967 0.292888 0.343778
183 1 0.400893 0.369127 0.351019
413 2 0.425453 0.453537 0.333332
292 2 0.586932 0.0208775 0.373655
551 1 0.540306 0.106536 0.383723
455 2 0.565245 0.288217 0.28612
208 1 0.624253 0.468339 0.35819
351 2 0.553243 0.499721 0.325914
395 2 0.654308 0.374907 0.354289
140 2 0.618499 0.0245797 0.303797
418 2 0.522757 0.155909 0.33813
533 1 0.503076 0.239572 0.308873
840 4 0.561141 0.4422 0.262429
839 4 0.606942 0.407088 0.224196
838 3 0.604918 0.413723 0.257048
246 1 0.863663 0.209378 0.253686
10 1 0.875922 0.00370268 0.229323
401 2 0.906148 0.122308 0.261052
422 2 0.781502 0.188406 0.268419
390 1 0.745438 0.141154 0.313481
79 2 0.902587 0.275408 0.285974
261 2 0.682064 0.0701956 0.310845
507 1 0.888004 0.048789 0.298999
242 2 0.719373 0.218218 0.345156
35 2 0.941557 0.0216523 0.338552
243 2 0.817876 0.0905877 0.327675
1 1 0.709306 0.304519 0.372831
534 1 0.963761 0.319605 0.321662
509 2 0.840905 0.4892 0.332723
174 1 0.845037 0.420088 0.374658
548 2 0.787568 0.34796 0.373438
538 2 0.921316 0.378516 0.358457
113 2 0.711252 0.0424478 0.368502
843 4 0.723148 0.45507 0.253843
842 4 0.789741 0.403868 0.248034
841 3 0.73966 0.404038 0.241739
520 2 0.267135 0.959257 0.234842
333 2 0.243453 0.625949 0.218211
224 2 0.255164 0.864166 0.20196
254 1 0.204582 0.854492 0.245982
220 2 0.122766 0.889092 0.237291
486 2 0.0983463 0.968276 0.364844
123 2 0.213732 0.990828 0.395255
283 2 0.117438 0.519047 0.285534
76 2 0.205567 0.623939 0.31052
131 2 0.126297 0.537115 0.375222
505 1 0.174266 0.538761 0.325466
407 1 0.241512 0.674616 0.2691
128 1 0.299409 0.991455 0.269404
259 2 0.0639895 0.89955 0.318656
414 2 0.20126 0.760227 0.261843
421 2 0.24 0.91899 0.282711
273 1 0.0450282 0.891373 0.261537
53 2 0.0990261 0.789411 0.389273
173 1 0.0551954 0.870835 0.372113
404 2 0.324806 0.69253 0.278307
978 4 0.252206 0.828762 0.345624
977 4 0.305609 0.762423 0.357033
976 3 0.255795 0.771565 0.352124
326 1 0.443581 0.565121 0.204112
166 2 0.358195 0.936518 0.239441
552 1 0.471423 0.531416 0.317879
95 2 0.457924 0.548893 0.261546
142 2 0.453943 0.605915 0.352783
19 1 0.459741 0.673017 0.394389
223 2 0.465445 0.766368 0.370756
135 2 0.488798 0.922028 0.387383
575 2 0.606746 0.916034 0.235924
120 1 0.610357 0.707693 0.398608
228 1 0.648593 0.98728 0.338015
553 2 0.562754 0.87527 0.317229
187 2 0.624989 0.676677 0.346098
516 1 0.622817 0.928299 0.289894
560 1 0.527731 0.841387 0.366326
13 2 0.591549 0.802544 0.396108
46 1 0.740532 0.581829 0.221553
130 2 0.809903 0.555934 0.251513
307 1 0.755192 0.760539 0.201812
531 2 0.810127 0.939339 0.240185
465 2 0.765662 0.7927 0.251591
193 2 0.954529 0.962818 0.239073
449 2 0.867776 0.972784 0.267295
150 2 0.682476 0.605482 0.26243
360 2 0.941836 0.520006 0.266406
21 1 0.8724 0.552224 0.291886
16 2 0.889545 0.634788 0.320493
463 2 0.684591 0.533016 0.343652
136 1 0.683249 0.620445 0.319371
457 2 0.758298 0.671776 0.328746
17 2 0.938606 0.867621 0.385462
323 2 0.965649 0.805235 0.260175
397 1 0.83295 0.693335 0.346061
378 2 0.703168 0.897793 0.303796
345 1 0.777698 0.876485 0.279962
226 1 0.856049 0.859966 0.372797
115 2 0.845091 0.764965 0.379763
400 2 0.83947 0.871013 0.318851
424 1 0.132988 0.0182799 0.407387
28 1 0.0460611 0.285384 0.482384
490 2 0.100908 0.287562 0.436376
459 2 0.0312944 0.0893324 0.411055
7 2 0.314727 0.0757808 0.572202
165 1 0.029062 0.0433481 0.543739
544 2 0.110714 0.0582561 0.528212
29 1 0.301683 0.272551 0.515431
33 2 0.271836 0.180578 0.510503
101 1 0.299325 0.0876055 0.515296
492 2 0.0730018 0.290489 0.535627
389 1 0.0999015 0.320927 0.587597
186 2 0.245585 0.336119 0.53467
158 2 0.239975 0.498281 0.538689
87 2 0.148227 0.404134 0.583451
316 1 0.230803 0.414226 0.566905
393 2 0.144096 0.00794492 0.537434
285 2 0.23955 0.0181477 0.503169
1050 4 0.276371 0.446019 0.43253
1049 4 0.247633 0.406287 0.475961
1048 3 0.289731 0.410694 0.457438
241 2 0.366635 0.0730766 0.477787
197 2 0.469907 0.0843453 0.414518
236 1 0.395704 0.0424878 0.427055
454 2 0.335305 0.294015 0.46599
495 2 0.405703 0.0498825 0.425629
559 1 0.436859 0.258457 0.584333
356 2 0.463753 0.168578 0.573453
477 2 0.364558 0.270173 0.556465
78 2 0.40799 0.016064 0.548792
554 2 0.592116 0.158187 0.415496
561 1 0.658861 0.180262 0.44684
312 2 0.636064 0.196682 0.498394
107 2 0.601288 0.48428 0.410196
198 2 0.614244 0.250995 0.58478
392 2 0.558509 0.0660318 0.552961
253 1 0.572568 0.332825 0.59868
122 2 0.63746 0.400912 0.591564
34 2 0.624102 0.482052 0.522005
355 2 0.591789 0.022278 0.573609
206 2 0.500253 0.326472 0.571223
52 2 0.520818 0.0316231 0.502425
543 1 0.507895 0.0936383 0.593483
1053 4 0.445091 0.393977 0.434965
1052 4 0.420024 0.463368 0.465513
1051 3 0.428182 0.405637 0.46548
1035 4 0.444871 0.268619 0.473872
1034 4 0.415999 0.194929 0.44838
1033 3 0.432443 0.249648 0.443625
68 2 0.966438 0.200936 0.475189
26 2 0.690169 0.267388 0.424643
147 1 0.94793 0.114219 0.455996
434 1 0.791516 0.061453 0.456483
402 2 0.862641 0.112678 0.441843
483 2 0.718644 0.105062 0.438586
363 1 0.702454 0.00673858 0.497901
88 2 0.949806 0.0526769 0.497643
309 1 0.921713 0.448267 0.465247
438 2 0.861546 0.458106 0.425038
458 2 0.954427 0.35718 0.474967
39 1 0.758251 0.00192294 0.408408
427 2 0.832638 0.0811544 0.597382
117 2 0.724838 0.164384 0.563403
255 1 0.763633 0.0735342 0.565679
327 1 0.669741 0.232563 0.545023
275 2 0.782544 0.048168 0.512104
94 2 0.968318 0.110444 0.581054
61 2 0.698845 0.325172 0.529801
9 2 0.842628 0.367377 0.577602
291 1 0.835002 0.462341 0.558514
178 2 0.752354 0.469806 0.545034
331 2 0.886979 0.473992 0.515345
55 1 0.679855 0.415983 0.54455
478 1 0.746241 0.00704878 0.593919
1059 4 0.746134 0.467688 0.450484
1058 4 0.774956 0.382484 0.458568
1057 3 0.73143 0.412837 0.456874
170 2 0.161666 0.778513 0.473613
233 2 0.134563 0.967064 0.453571
194 2 0.0266195 0.503461 0.445721
365 2 0.163321 0.526693 0.463105
30 1 0.0984047 0.553615 0.431129
502 2 0.273977 0.612087 0.482759
251 2 0.0862687 0.651101 0.43682
200 1 0.108694 0.742839 0.436187
205 2 0.300104 0.763289 0.49572
219 1 0.268813 0.935008 0.420279
519 2 0.250278 0.903108 0.469763
211 2 0.0857245 0.936889 0.410374
47 1 0.161416 0.992197 0.506202
277 2 0.0237231 0.953436 0.564693
517 2 0.148489 0.620437 0.53488
550 1 0.119829 0.670439 0.579002
445 2 0.20878 0.834751 0.553686
119 1 0.0794153 0.987962 0.575726
294 2 0.0435441 0.897017 0.574899
518 2 0.0595056 0.74099 0.565368
272 1 0.205435 0.56739 0.505758
442 1 0.2339 0.820397 0.500204
133 2 0.391453 0.67509 0.433069
146 1 0.343514 0.673076 0.482001
508 2 0.344883 0.916948 0.403279
6 2 0.43493 0.923078 0.470747
227 1 0.422468 0.954878 0.417607
547 2 0.388316 0.523754 0.574507
191 1 0.43936 0.601742 0.561158
446 2 0.394693 0.659852 0.528018
406 1 0.464096 0.962813 0.520174
304 2 0.494936 0.89502 0.554512
341 2 0.536706 0.666496 0.416808
280 1 0.580685 0.979636 0.531133
576 2 0.650316 0.977785 0.501558
423 2 0.60478 0.58639 0.599994
353 1 0.59481 0.567901 0.541519
204 2 0.646061 0.637977 0.518781
18 2 0.509357 0.573415 0.532829
1200 4 0.549728 0.787128 0.555296
1199 4 0.628837 0.768965 0.555024
1198 3 0.594397 0.806787 0.56677
467 2 0.800862 0.973104 0.43261
542 1 0.703431 0.677718 0.486213
167 2 0.810661 0.923755 0.401252
252 2 0.673301 0.689829 0.436326
152 2 0.702915 0.967799 0.449701
436 2 0.722662 0.997126 0.587948
420 2 0.820312 0.677589 0.593911
456 2 0.905453 0.649197 0.517555
265 2 0.738786 0.969006 0.542566
324 2 0.778354 0.715698 0.504705
245 1 0.84874 0.711765 0.541856
232 2 0.899537 0.789978 0.555309
82 1 0.970976 0.810837 0.583526
320 2 0.153706 0.21289 0.698675
299 1 0.198732 0.267871 0.660602
177 2 0.280794 0.237358 0.656029
180 2 0.154552 0.263025 0.614546
337 2 0.0806712 0.034666 0.668631
408 1 0.288604 0.029736 0.622037
286 2 0.204468 0.0247783 0.624183
346 2 0.320522 0.0724438 0.666881
58 2 0.0418148 0.337713 0.630457
207 2 0.19945 0.356527 0.682103
501 2 0.291521 0.422633 0.607042
373 2 0.166083 0.48721 0.727607
568 1 0.193436 0.392411 0.734199
451 1 0.182403 0.00498744 0.753128
310 2 0.114023 0.0450461 0.779828
540 2 0.327875 0.0479733 0.618417
303 2 0.114606 0.00597351 0.625334
487 1 0.133547 0.235241 0.750935
196 2 0.0572334 0.204485 0.765559
44 2 0.196032 0.194481 0.782211
574 2 0.291276 0.0831162 0.75705
188 2 0.13567 0.333333 0.755254
59 2 0.261764 0.37877 0.765003
143 2 0.254966 0.00252426 0.78889
118 1 0.356653 0.252887 0.678723
549 2 0.415986 0.260362 0.638519
176 2 0.38111 0.181405 0.711536
521 2 0.453602 0.0225681 0.609638
370 1 0.354745 0.0869314 0.717457
99 2 0.416859 0.0200868 0.727839
60 2 0.357916 0.33764 0.710152
276 2 0.423795 0.432096 0.644811
289 1 0.358445 0.481834 0.622405
164 1 0.409235 0.0404331 0.603272
557 2 0.384564 0.304218 0.798008
381 1 0.348923 0.373477 0.763443
322 2 0.374995 0.46095 0.779574
558 2 0.496571 0.409379 0.728306
444 1 0.49891 0.420169 0.671794
156 1 0.587795 0.139179 0.689315
62 2 0.548631 0.124097 0.641183
419 2 0.537373 0.176484 0.727745
203 2 0.615656 0.0517269 0.706586
405 2 0.661442 0.194834 0.679934
239 2 0.550523 0.349032 0.651951
185 2 0.598628 0.00693164 0.679343
160 2 0.557123 0.299805 0.781869
515 1 0.553674 0.203092 0.780427
31 2 0.632305 0.165639 0.786593
249 2 0.619379 0.439593 0.761415
244 1 0.5454 0.39679 0.773196
74 1 0.965703 0.0297905 0.685139
109 1 0.900068 0.132501 0.613543
234 2 0.920955 0.1053 0.665193
64 1 0.727544 0.250801 0.691648
411 2 0.884328 0.226133 0.612226
313 2 0.787273 0.20448 0.725431
41 2 0.762304 0.287056 0.644073
83 1 0.839048 0.309179 0.623042
466 2 0.96791 0.0226889 0.741776
77 2 0.791584 0.0534327 0.752807
437 2 0.695344 0.324213 0.722906
349 2 0.879892 0.362961 0.661307
330 2 0.742884 0.474878 0.725869
93 1 0.959828 0.390165 0.667836
124 2 0.929754 0.0485966 0.668439
369 2 0.795938 0.0302583 0.699583
256 2 0.682133 0.0492615 0.753059
364 2 0.894327 0.151653 0.785792
362 1 0.810004 0.145467 0.769113
410 2 0.980095 0.483228 0.65001
138 1 0.698859 0.405194 0.752407
75 1 0.957851 0.43729 0.772222
428 2 0.811842 0.0166836 0.788605
572 2 0.970144 0.392388 0.723324
425 1 0.14787 0.977592 0.656063
481 2 0.19223 0.950798 0.702724
409 2 0.242739 0.659948 0.70032
51 2 0.0832229 0.610874 0.615227
42 2 0.0609066 0.588805 0.706798
102 1 0.322044 0.626503 0.693126
464 2 0.328534 0.547571 0.661274
452 1 0.0323507 0.574894 0.65598
499 2 0.183232 0.715063 0.605894
98 2 0.299969 0.811242 0.622291
264 1 0.218444 0.806716 0.606309
268 2 0.172948 0.85297 0.646908
69 2 0.0543408 0.885677 0.700489
172 1 0.135085 0.85217 0.697739
439 2 0.137394 0.760576 0.719162
493 2 0.177003 0.911513 0.733547
66 1 0.0377012 0.991339 0.789004
262 1 0.109684 0.552214 0.747281
545 2 0.150955 0.628067 0.768108
103 2 0.0608826 0.50034 0.781366
570 1 0.195206 0.699453 0.742994
340 2 0.251452 0.744524 0.77724
15 2 0.473849 0.624415 0.610493
511 2 0.345792 0.609269 0.746216
295 2 0.368741 0.703302 0.671882
498 1 0.370899 0.794202 0.651478
448 2 0.440163 0.809338 0.62227
213 2 0.446018 0.964823 0.629183
473 2 0.372888 0.859255 0.693566
84 1 0.422695 0.876611 0.738816
506 1 0.492319 0.886958 0.610147
325 1 0.454285 0.961522 0.76321
235 1 0.355933 0.556069 0.793469
32 2 0.421108 0.975505 0.753707
368 2 0.382595 0.821697 0.778621
209 1 0.608679 0.962429 0.724583
471 1 0.544957 0.593865 0.639894
319 2 0.538283 0.505733 0.663831
132 2 0.666105 0.605211 0.729209
155 1 0.592842 0.655551 0.734222
216 2 0.557831 0.656764 0.682394
342 2 0.503093 0.849773 0.731576
344 1 0.63019 0.923438 0.660715
293 2 0.568206 0.877951 0.631311
125 2 0.644427 0.876642 0.707047
2 1 0.592319 0.840256 0.746801
315 2 0.539261 0.960263 0.758419
70 2 0.535156 0.619019 0.769163
260 2 0.610136 0.891964 0.792095
105 2 0.607363 0.746174 0.754008
479 1 0.770143 0.959496 0.748921
218 1 0.840939 0.607272 0.633375
430 2 0.9204 0.619549 0.653942
250 2 0.787217 0.604454 0.677859
217 1 0.751137 0.573085 0.725305
450 2 0.842429 0.523637 0.603388
474 2 0.955616 0.802234 0.637711
494 2 0.701089 0.94887 0.628503
496 1 0.858612 0.992648 0.66747
318 1 0.941163 0.838925 0.688511
491 2 0.880324 0.906238 0.686514
36 2 0.82547 0.994704 0.616187
279 2 0.923639 0.771134 0.728986
567 2 0.915602 0.658462 0.797177
161 2 0.791846 0.600854 0.774366
25 2 0.893119 0.50265 0.771207
137 1 0.911726 0.7554 0.783219
1311 4 0.728991 0.827601 0.666811
1310 4 0.769642 0.756398 0.646302
1309 3 0.75397 0.778777 0.675135
431 2 0.0785995 0.11381 0.960744
73 1 0.223647 0.0257181 0.885852
524 1 0.257077 0.134929 0.802288
512 2 0.217004 0.0729844 0.83836
563 2 0.314827 0.182792 0.833705
40 2 0.146603 0.00577738 0.908517
189 2 0.265374 0.0853112 0.920678
154 1 0.0747102 0.0223194 0.938601
221 2 0.125524 0.275683 0.956754
263 1 0.130014 0.18642 0.974228
248 2 0.0434698 0.075193 0.817222
210 1 0.281968 0.123985 0.97124
339 2 0.116326 0.433731 0.966398
266 2 0.306133 0.360912 0.959616
484 2 0.253092 0.465997 0.897401
529 2 0.0576773 0.359731 0.892757
182 1 0.316754 0.406049 0.911091
214 2 0.312117 0.333384 0.871973
460 1 0.0774257 0.356824 0.947142
429 2 0.265581 0.0432398 0.878063
269 2 0.20598 0.158724 0.989722
91 1 0.34171 0.291778 0.988078
343 1 0.359748 0.263698 0.8458
382 2 0.421904 0.244767 0.880705
417 1 0.482445 0.174669 0.881078
384 2 0.449583 0.0853932 0.890677
571 2 0.334327 0.198664 0.973686
532 1 0.459054 0.491644 0.943372
296 2 0.391946 0.456402 0.912504
555 2 0.458116 0.0222458 0.899865
148 2 0.507344 0.176444 0.826349
23 2 0.646103 0.247255 0.960149
475 2 0.661034 0.193124 0.871943
380 1 0.563186 0.228827 0.975674
302 2 0.529734 0.199817 0.926579
72 2 0.526982 0.457083 0.916046
56 1 0.561503 0.47778 0.866901
301 2 0.52322 0.432357 0.824216
530 2 0.642802 0.448682 0.867968
175 2 0.879884 0.216566 0.974877
57 1 0.97606 0.165524 0.807613
398 1 0.698588 0.234628 0.916768
527 2 0.966818 0.0083214 0.914029
157 2 0.762271 0.171281 0.814577
86 2 0.684605 0.0430132 0.844053
469 1 0.684767 0.136604 0.829112
149 2 0.848415 0.0626541 0.947772
357 2 0.765927 0.182264 0.930316
426 1 0.818237 0.144317 0.967798
129 1 0.889481 0.31313 0.964273
443 1 0.95743 0.325717 0.865672
329 2 0.971807 0.227577 0.848922
386 2 0.893761 0.321544 0.907567
573 2 0.723812 0.323172 0.895762
535 2 0.971045 0.341169 0.976103
565 2 0.731069 0.388793 0.806526
163 1 0.706236 0.39005 0.858507
332 2 0.942817 0.381807 0.817947
453 1 0.870626 0.013431 0.82968
71 2 0.951168 0.0300233 0.812986
284 2 0.872419 0.00302003 0.948265
1653 4 0.750781 0.0176922 0.96848
195 2 0.329758 0.751588 0.855019
321 2 0.125256 0.795248 0.980047
201 1 0.179141 0.856652 0.891114
514 1 0.0355665 0.788851 0.86853
376 2 0.0803539 0.964335 0.983553
308 1 0.288769 0.71873 0.901509
359 2 0.0277426 0.561204 0.89448
375 2 0.112618 0.644923 0.955547
281 1 0.0941131 0.621346 0.900931
159 2 0.284831 0.54974 0.822847
271 1 0.244463 0.552902 0.87227
287 2 0.282396 0.624049 0.901812
500 2 0.160615 0.577314 0.873171
231 2 0.0956841 0.855394 0.878264
192 1 0.281682 0.970839 0.839267
169 2 0.0719448 0.700597 0.871767
184 2 0.22482 0.896948 0.84888
139 2 0.189773 0.908651 0.937023
267 2 0.212768 0.767012 0.898826
37 1 0.320781 0.775589 0.803839
539 2 0.324509 0.749987 0.948767
361 1 0.176156 0.874732 0.98841
126 2 0.438507 0.989046 0.81674
145 1 0.471882 0.998728 0.867997
225 2 0.420552 0.594354 0.821039
8 2 0.47044 0.591676 0.949144
237 1 0.420766 0.932038 0.90129
288 2 0.383775 0.919555 0.952166
566 2 0.466313 0.855092 0.886038
311 2 0.360307 0.941109 0.857478
134 2 0.497596 0.718816 0.843297
412 2 0.528924 0.736032 0.931539
38 1 0.502441 0.624916 0.821481
526 2 0.556756 0.999507 0.861246
480 1 0.637553 0.978065 0.874618
81 2 0.645854 0.999936 0.927864
489 1 0.521543 0.662024 0.970334
89 2 0.553461 0.572358 0.854801
282 1 0.646148 0.892323 0.843193
350 2 0.650641 0.981269 0.865771
338 2 0.600741 0.821849 0.87124
199 1 0.52559 0.786016 0.882359
127 1 0.881286 0.982702 0.921039
144 2 0.85294 0.975415 0.868929
202 2 0.885908 0.651332 0.921471
90 2 0.864627 0.548094 0.857723
3 1 0.911869 0.560742 0.905578
415 1 0.863282 0.577091 0.801243
63 2 0.901615 0.512083 0.954206
537 2 0.699168 0.522244 0.980137
22 2 0.972096 0.798865 0.814798
432 2 0.84657 0.757058 0.979104
85 2 0.858164 0.923201 0.850647
181 1 0.867418 0.747493 0.924529
377 2 0.838977 0.792039 0.800064
383 2 0.726479 0.86442 0.836916
366 2 0.687571 0.824132 0.969355
403 2 0.80978 0.779995 0.888227
371 1 0.808455 0.843094 0.845019
240 2 0.939889 0.7945 0.90806
1652 4 0.766982 0.932729 0.9863
1651 3 0.734768 0.962242 0.966819
