ITEM: TIMESTEP
0
ITEM: NUMBER OF ATOMS
4948
ITEM: BOX BOUNDS pp pp pp
-1.6160000000000000e+01 1.6160000000000000e+01
-1.6160000000000000e+01 1.6160000000000000e+01
-5.2520000000000003e+01 5.2520000000000003e+01
ITEM: ATOMS id type xs ys zs
1 5 0 0 0.0384615
2 5 0.0625 0.0625 0.0384615
3 5 0.0625 0 0.0576923
4 5 0 0.0625 0.0576923
5 5 0.125 0 0.0384615
6 5 0.1875 0.0625 0.0384615
7 5 0.1875 0 0.0576923
8 5 0.125 0.0625 0.0576923
33 5 0 0.125 0.0384615
34 5 0.0625 0.1875 0.0384615
35 5 0.0625 0.125 0.0576923
36 5 0 0.1875 0.0576923
37 5 0.125 0.125 0.0384615
38 5 0.1875 0.1875 0.0384615
39 5 0.1875 0.125 0.0576923
40 5 0.125 0.1875 0.0576923
9 5 0.25 0 0.0384615
10 5 0.3125 0.0625 0.0384615
11 5 0.3125 0 0.0576923
12 5 0.25 0.0625 0.0576923
13 5 0.375 0 0.0384615
14 5 0.4375 0.0625 0.0384615
15 5 0.4375 0 0.0576923
16 5 0.375 0.0625 0.0576923
41 5 0.25 0.125 0.0384615
42 5 0.3125 0.1875 0.0384615
43 5 0.3125 0.125 0.0576923
44 5 0.25 0.1875 0.0576923
45 5 0.375 0.125 0.0384615
46 5 0.4375 0.1875 0.0384615
47 5 0.4375 0.125 0.0576923
48 5 0.375 0.1875 0.0576923
17 5 0.5 0 0.0384615
18 5 0.5625 0.0625 0.0384615
19 5 0.5625 0 0.0576923
20 5 0.5 0.0625 0.0576923
21 5 0.625 0 0.0384615
22 5 0.6875 0.0625 0.0384615
23 5 0.6875 0 0.0576923
24 5 0.625 0.0625 0.0576923
49 5 0.5 0.125 0.0384615
50 5 0.5625 0.1875 0.0384615
51 5 0.5625 0.125 0.0576923
52 5 0.5 0.1875 0.0576923
53 5 0.625 0.125 0.0384615
54 5 0.6875 0.1875 0.0384615
55 5 0.6875 0.125 0.0576923
56 5 0.625 0.1875 0.0576923
25 5 0.75 0 0.0384615
26 5 0.8125 0.0625 0.0384615
27 5 0.8125 0 0.0576923
28 5 0.75 0.0625 0.0576923
29 5 0.875 0 0.0384615
30 5 0.9375 0.0625 0.0384615
31 5 0.9375 0 0.0576923
32 5 0.875 0.0625 0.0576923
57 5 0.75 0.125 0.0384615
58 5 0.8125 0.1875 0.0384615
59 5 0.8125 0.125 0.0576923
60 5 0.75 0.1875 0.0576923
61 5 0.875 0.125 0.0384615
62 5 0.9375 0.1875 0.0384615
63 5 0.9375 0.125 0.0576923
64 5 0.875 0.1875 0.0576923
65 5 0 0.25 0.0384615
66 5 0.0625 0.3125 0.0384615
67 5 0.0625 0.25 0.0576923
68 5 0 0.3125 0.0576923
69 5 0.125 0.25 0.0384615
70 5 0.1875 0.3125 0.0384615
71 5 0.1875 0.25 0.0576923
72 5 0.125 0.3125 0.0576923
97 5 0 0.375 0.0384615
98 5 0.0625 0.4375 0.0384615
99 5 0.0625 0.375 0.0576923
100 5 0 0.4375 0.0576923
101 5 0.125 0.375 0.0384615
102 5 0.1875 0.4375 0.0384615
103 5 0.1875 0.375 0.0576923
104 5 0.125 0.4375 0.0576923
73 5 0.25 0.25 0.0384615
74 5 0.3125 0.3125 0.0384615
75 5 0.3125 0.25 0.0576923
76 5 0.25 0.3125 0.0576923
77 5 0.375 0.25 0.0384615
78 5 0.4375 0.3125 0.0384615
79 5 0.4375 0.25 0.0576923
80 5 0.375 0.3125 0.0576923
105 5 0.25 0.375 0.0384615
106 5 0.3125 0.4375 0.0384615
107 5 0.3125 0.375 0.0576923
108 5 0.25 0.4375 0.0576923
109 5 0.375 0.375 0.0384615
110 5 0.4375 0.4375 0.0384615
111 5 0.4375 0.375 0.0576923
112 5 0.375 0.4375 0.0576923
81 5 0.5 0.25 0.0384615
82 5 0.5625 0.3125 0.0384615
83 5 0.5625 0.25 0.0576923
84 5 0.5 0.3125 0.0576923
85 5 0.625 0.25 0.0384615
86 5 0.6875 0.3125 0.0384615
87 5 0.6875 0.25 0.0576923
88 5 0.625 0.3125 0.0576923
113 5 0.5 0.375 0.0384615
114 5 0.5625 0.4375 0.0384615
115 5 0.5625 0.375 0.0576923
116 5 0.5 0.4375 0.0576923
117 5 0.625 0.375 0.0384615
118 5 0.6875 0.4375 0.0384615
119 5 0.6875 0.375 0.0576923
120 5 0.625 0.4375 0.0576923
89 5 0.75 0.25 0.0384615
90 5 0.8125 0.3125 0.0384615
91 5 0.8125 0.25 0.0576923
92 5 0.75 0.3125 0.0576923
93 5 0.875 0.25 0.0384615
94 5 0.9375 0.3125 0.0384615
95 5 0.9375 0.25 0.0576923
96 5 0.875 0.3125 0.0576923
121 5 0.75 0.375 0.0384615
122 5 0.8125 0.4375 0.0384615
123 5 0.8125 0.375 0.0576923
124 5 0.75 0.4375 0.0576923
125 5 0.875 0.375 0.0384615
126 5 0.9375 0.4375 0.0384615
127 5 0.9375 0.375 0.0576923
128 5 0.875 0.4375 0.0576923
129 5 0 0.5 0.0384615
130 5 0.0625 0.5625 0.0384615
131 5 0.0625 0.5 0.0576923
132 5 0 0.5625 0.0576923
133 5 0.125 0.5 0.0384615
134 5 0.1875 0.5625 0.0384615
135 5 0.1875 0.5 0.0576923
136 5 0.125 0.5625 0.0576923
161 5 0 0.625 0.0384615
162 5 0.0625 0.6875 0.0384615
163 5 0.0625 0.625 0.0576923
164 5 0 0.6875 0.0576923
165 5 0.125 0.625 0.0384615
166 5 0.1875 0.6875 0.0384615
167 5 0.1875 0.625 0.0576923
168 5 0.125 0.6875 0.0576923
137 5 0.25 0.5 0.0384615
138 5 0.3125 0.5625 0.0384615
139 5 0.3125 0.5 0.0576923
140 5 0.25 0.5625 0.0576923
141 5 0.375 0.5 0.0384615
142 5 0.4375 0.5625 0.0384615
143 5 0.4375 0.5 0.0576923
144 5 0.375 0.5625 0.0576923
169 5 0.25 0.625 0.0384615
170 5 0.3125 0.6875 0.0384615
171 5 0.3125 0.625 0.0576923
172 5 0.25 0.6875 0.0576923
173 5 0.375 0.625 0.0384615
174 5 0.4375 0.6875 0.0384615
175 5 0.4375 0.625 0.0576923
176 5 0.375 0.6875 0.0576923
145 5 0.5 0.5 0.0384615
146 5 0.5625 0.5625 0.0384615
147 5 0.5625 0.5 0.0576923
148 5 0.5 0.5625 0.0576923
149 5 0.625 0.5 0.0384615
150 5 0.6875 0.5625 0.0384615
151 5 0.6875 0.5 0.0576923
152 5 0.625 0.5625 0.0576923
177 5 0.5 0.625 0.0384615
178 5 0.5625 0.6875 0.0384615
179 5 0.5625 0.625 0.0576923
180 5 0.5 0.6875 0.0576923
181 5 0.625 0.625 0.0384615
182 5 0.6875 0.6875 0.0384615
183 5 0.6875 0.625 0.0576923
184 5 0.625 0.6875 0.0576923
153 5 0.75 0.5 0.0384615
154 5 0.8125 0.5625 0.0384615
155 5 0.8125 0.5 0.0576923
156 5 0.75 0.5625 0.0576923
157 5 0.875 0.5 0.0384615
158 5 0.9375 0.5625 0.0384615
159 5 0.9375 0.5 0.0576923
160 5 0.875 0.5625 0.0576923
185 5 0.75 0.625 0.0384615
186 5 0.8125 0.6875 0.0384615
187 5 0.8125 0.625 0.0576923
188 5 0.75 0.6875 0.0576923
189 5 0.875 0.625 0.0384615
190 5 0.9375 0.6875 0.0384615
191 5 0.9375 0.625 0.0576923
192 5 0.875 0.6875 0.0576923
193 5 0 0.75 0.0384615
194 5 0.0625 0.8125 0.0384615
195 5 0.0625 0.75 0.0576923
196 5 0 0.8125 0.0576923
197 5 0.125 0.75 0.0384615
198 5 0.1875 0.8125 0.0384615
199 5 0.1875 0.75 0.0576923
200 5 0.125 0.8125 0.0576923
225 5 0 0.875 0.0384615
226 5 0.0625 0.9375 0.0384615
227 5 0.0625 0.875 0.0576923
228 5 0 0.9375 0.0576923
229 5 0.125 0.875 0.0384615
230 5 0.1875 0.9375 0.0384615
231 5 0.1875 0.875 0.0576923
232 5 0.125 0.9375 0.0576923
201 5 0.25 0.75 0.0384615
202 5 0.3125 0.8125 0.0384615
203 5 0.3125 0.75 0.0576923
204 5 0.25 0.8125 0.0576923
205 5 0.375 0.75 0.0384615
206 5 0.4375 0.8125 0.0384615
207 5 0.4375 0.75 0.0576923
208 5 0.375 0.8125 0.0576923
233 5 0.25 0.875 0.0384615
234 5 0.3125 0.9375 0.0384615
235 5 0.3125 0.875 0.0576923
236 5 0.25 0.9375 0.0576923
237 5 0.375 0.875 0.0384615
238 5 0.4375 0.9375 0.0384615
239 5 0.4375 0.875 0.0576923
240 5 0.375 0.9375 0.0576923
209 5 0.5 0.75 0.0384615
210 5 0.5625 0.8125 0.0384615
211 5 0.5625 0.75 0.0576923
212 5 0.5 0.8125 0.0576923
213 5 0.625 0.75 0.0384615
214 5 0.6875 0.8125 0.0384615
215 5 0.6875 0.75 0.0576923
216 5 0.625 0.8125 0.0576923
241 5 0.5 0.875 0.0384615
242 5 0.5625 0.9375 0.0384615
243 5 0.5625 0.875 0.0576923
244 5 0.5 0.9375 0.0576923
245 5 0.625 0.875 0.0384615
246 5 0.6875 0.9375 0.0384615
247 5 0.6875 0.875 0.0576923
248 5 0.625 0.9375 0.0576923
217 5 0.75 0.75 0.0384615
218 5 0.8125 0.8125 0.0384615
219 5 0.8125 0.75 0.0576923
220 5 0.75 0.8125 0.0576923
221 5 0.875 0.75 0.0384615
222 5 0.9375 0.8125 0.0384615
223 5 0.9375 0.75 0.0576923
224 5 0.875 0.8125 0.0576923
249 5 0.75 0.875 0.0384615
250 5 0.8125 0.9375 0.0384615
251 5 0.8125 0.875 0.0576923
252 5 0.75 0.9375 0.0576923
253 5 0.875 0.875 0.0384615
254 5 0.9375 0.9375 0.0384615
255 5 0.9375 0.875 0.0576923
256 5 0.875 0.9375 0.0576923
257 5 0 0 0.0769231
258 5 0.0625 0.0625 0.0769231
259 5 0.0625 0 0.0961538
260 5 0 0.0625 0.0961538
261 5 0.125 0 0.0769231
262 5 0.1875 0.0625 0.0769231
263 5 0.1875 0 0.0961538
264 5 0.125 0.0625 0.0961538
289 5 0 0.125 0.0769231
290 5 0.0625 0.1875 0.0769231
291 5 0.0625 0.125 0.0961538
292 5 0 0.1875 0.0961538
293 5 0.125 0.125 0.0769231
294 5 0.1875 0.1875 0.0769231
295 5 0.1875 0.125 0.0961538
296 5 0.125 0.1875 0.0961538
513 5 0 0 0.115385
514 5 0.0625 0.0625 0.115385
515 5 0.125 0 0.115385
516 5 0.1875 0.0625 0.115385
529 5 0 0.125 0.115385
530 5 0.0625 0.1875 0.115385
531 5 0.125 0.125 0.115385
532 5 0.1875 0.1875 0.115385
265 5 0.25 0 0.0769231
266 5 0.3125 0.0625 0.0769231
267 5 0.3125 0 0.0961538
268 5 0.25 0.0625 0.0961538
269 5 0.375 0 0.0769231
270 5 0.4375 0.0625 0.0769231
271 5 0.4375 0 0.0961538
272 5 0.375 0.0625 0.0961538
297 5 0.25 0.125 0.0769231
298 5 0.3125 0.1875 0.0769231
299 5 0.3125 0.125 0.0961538
300 5 0.25 0.1875 0.0961538
301 5 0.375 0.125 0.0769231
302 5 0.4375 0.1875 0.0769231
303 5 0.4375 0.125 0.0961538
304 5 0.375 0.1875 0.0961538
517 5 0.25 0 0.115385
518 5 0.3125 0.0625 0.115385
519 5 0.375 0 0.115385
520 5 0.4375 0.0625 0.115385
533 5 0.25 0.125 0.115385
534 5 0.3125 0.1875 0.115385
535 5 0.375 0.125 0.115385
536 5 0.4375 0.1875 0.115385
273 5 0.5 0 0.0769231
274 5 0.5625 0.0625 0.0769231
275 5 0.5625 0 0.0961538
276 5 0.5 0.0625 0.0961538
277 5 0.625 0 0.0769231
278 5 0.6875 0.0625 0.0769231
279 5 0.6875 0 0.0961538
280 5 0.625 0.0625 0.0961538
305 5 0.5 0.125 0.0769231
306 5 0.5625 0.1875 0.0769231
307 5 0.5625 0.125 0.0961538
308 5 0.5 0.1875 0.0961538
309 5 0.625 0.125 0.0769231
310 5 0.6875 0.1875 0.0769231
311 5 0.6875 0.125 0.0961538
312 5 0.625 0.1875 0.0961538
521 5 0.5 0 0.115385
522 5 0.5625 0.0625 0.115385
523 5 0.625 0 0.115385
524 5 0.6875 0.0625 0.115385
537 5 0.5 0.125 0.115385
538 5 0.5625 0.1875 0.115385
539 5 0.625 0.125 0.115385
540 5 0.6875 0.1875 0.115385
281 5 0.75 0 0.0769231
282 5 0.8125 0.0625 0.0769231
283 5 0.8125 0 0.0961538
284 5 0.75 0.0625 0.0961538
285 5 0.875 0 0.0769231
286 5 0.9375 0.0625 0.0769231
287 5 0.9375 0 0.0961538
288 5 0.875 0.0625 0.0961538
313 5 0.75 0.125 0.0769231
314 5 0.8125 0.1875 0.0769231
315 5 0.8125 0.125 0.0961538
316 5 0.75 0.1875 0.0961538
317 5 0.875 0.125 0.0769231
318 5 0.9375 0.1875 0.0769231
319 5 0.9375 0.125 0.0961538
320 5 0.875 0.1875 0.0961538
525 5 0.75 0 0.115385
526 5 0.8125 0.0625 0.115385
527 5 0.875 0 0.115385
528 5 0.9375 0.0625 0.115385
541 5 0.75 0.125 0.115385
542 5 0.8125 0.1875 0.115385
543 5 0.875 0.125 0.115385
544 5 0.9375 0.1875 0.115385
321 5 0 0.25 0.0769231
322 5 0.0625 0.3125 0.0769231
323 5 0.0625 0.25 0.0961538
324 5 0 0.3125 0.0961538
325 5 0.125 0.25 0.0769231
326 5 0.1875 0.3125 0.0769231
327 5 0.1875 0.25 0.0961538
328 5 0.125 0.3125 0.0961538
353 5 0 0.375 0.0769231
354 5 0.0625 0.4375 0.0769231
355 5 0.0625 0.375 0.0961538
356 5 0 0.4375 0.0961538
357 5 0.125 0.375 0.0769231
358 5 0.1875 0.4375 0.0769231
359 5 0.1875 0.375 0.0961538
360 5 0.125 0.4375 0.0961538
545 5 0 0.25 0.115385
546 5 0.0625 0.3125 0.115385
547 5 0.125 0.25 0.115385
548 5 0.1875 0.3125 0.115385
561 5 0 0.375 0.115385
562 5 0.0625 0.4375 0.115385
563 5 0.125 0.375 0.115385
564 5 0.1875 0.4375 0.115385
329 5 0.25 0.25 0.0769231
330 5 0.3125 0.3125 0.0769231
331 5 0.3125 0.25 0.0961538
332 5 0.25 0.3125 0.0961538
333 5 0.375 0.25 0.0769231
334 5 0.4375 0.3125 0.0769231
335 5 0.4375 0.25 0.0961538
336 5 0.375 0.3125 0.0961538
361 5 0.25 0.375 0.0769231
362 5 0.3125 0.4375 0.0769231
363 5 0.3125 0.375 0.0961538
364 5 0.25 0.4375 0.0961538
365 5 0.375 0.375 0.0769231
366 5 0.4375 0.4375 0.0769231
367 5 0.4375 0.375 0.0961538
368 5 0.375 0.4375 0.0961538
549 5 0.25 0.25 0.115385
550 5 0.3125 0.3125 0.115385
551 5 0.375 0.25 0.115385
552 5 0.4375 0.3125 0.115385
565 5 0.25 0.375 0.115385
566 5 0.3125 0.4375 0.115385
567 5 0.375 0.375 0.115385
568 5 0.4375 0.4375 0.115385
337 5 0.5 0.25 0.0769231
338 5 0.5625 0.3125 0.0769231
339 5 0.5625 0.25 0.0961538
340 5 0.5 0.3125 0.0961538
341 5 0.625 0.25 0.0769231
342 5 0.6875 0.3125 0.0769231
343 5 0.6875 0.25 0.0961538
344 5 0.625 0.3125 0.0961538
369 5 0.5 0.375 0.0769231
370 5 0.5625 0.4375 0.0769231
371 5 0.5625 0.375 0.0961538
372 5 0.5 0.4375 0.0961538
373 5 0.625 0.375 0.0769231
374 5 0.6875 0.4375 0.0769231
375 5 0.6875 0.375 0.0961538
376 5 0.625 0.4375 0.0961538
553 5 0.5 0.25 0.115385
554 5 0.5625 0.3125 0.115385
555 5 0.625 0.25 0.115385
556 5 0.6875 0.3125 0.115385
569 5 0.5 0.375 0.115385
570 5 0.5625 0.4375 0.115385
571 5 0.625 0.375 0.115385
572 5 0.6875 0.4375 0.115385
345 5 0.75 0.25 0.0769231
346 5 0.8125 0.3125 0.0769231
347 5 0.8125 0.25 0.0961538
348 5 0.75 0.3125 0.0961538
349 5 0.875 0.25 0.0769231
350 5 0.9375 0.3125 0.0769231
351 5 0.9375 0.25 0.0961538
352 5 0.875 0.3125 0.0961538
377 5 0.75 0.375 0.0769231
378 5 0.8125 0.4375 0.0769231
379 5 0.8125 0.375 0.0961538
380 5 0.75 0.4375 0.0961538
381 5 0.875 0.375 0.0769231
382 5 0.9375 0.4375 0.0769231
383 5 0.9375 0.375 0.0961538
384 5 0.875 0.4375 0.0961538
557 5 0.75 0.25 0.115385
558 5 0.8125 0.3125 0.115385
559 5 0.875 0.25 0.115385
560 5 0.9375 0.3125 0.115385
573 5 0.75 0.375 0.115385
574 5 0.8125 0.4375 0.115385
575 5 0.875 0.375 0.115385
576 5 0.9375 0.4375 0.115385
385 5 0 0.5 0.0769231
386 5 0.0625 0.5625 0.0769231
387 5 0.0625 0.5 0.0961538
388 5 0 0.5625 0.0961538
389 5 0.125 0.5 0.0769231
390 5 0.1875 0.5625 0.0769231
391 5 0.1875 0.5 0.0961538
392 5 0.125 0.5625 0.0961538
417 5 0 0.625 0.0769231
418 5 0.0625 0.6875 0.0769231
419 5 0.0625 0.625 0.0961538
420 5 0 0.6875 0.0961538
421 5 0.125 0.625 0.0769231
422 5 0.1875 0.6875 0.0769231
423 5 0.1875 0.625 0.0961538
424 5 0.125 0.6875 0.0961538
577 5 0 0.5 0.115385
578 5 0.0625 0.5625 0.115385
579 5 0.125 0.5 0.115385
580 5 0.1875 0.5625 0.115385
593 5 0 0.625 0.115385
594 5 0.0625 0.6875 0.115385
595 5 0.125 0.625 0.115385
596 5 0.1875 0.6875 0.115385
393 5 0.25 0.5 0.0769231
394 5 0.3125 0.5625 0.0769231
395 5 0.3125 0.5 0.0961538
396 5 0.25 0.5625 0.0961538
397 5 0.375 0.5 0.0769231
398 5 0.4375 0.5625 0.0769231
399 5 0.4375 0.5 0.0961538
400 5 0.375 0.5625 0.0961538
425 5 0.25 0.625 0.0769231
426 5 0.3125 0.6875 0.0769231
427 5 0.3125 0.625 0.0961538
428 5 0.25 0.6875 0.0961538
429 5 0.375 0.625 0.0769231
430 5 0.4375 0.6875 0.0769231
431 5 0.4375 0.625 0.0961538
432 5 0.375 0.6875 0.0961538
581 5 0.25 0.5 0.115385
582 5 0.3125 0.5625 0.115385
583 5 0.375 0.5 0.115385
584 5 0.4375 0.5625 0.115385
597 5 0.25 0.625 0.115385
598 5 0.3125 0.6875 0.115385
599 5 0.375 0.625 0.115385
600 5 0.4375 0.6875 0.115385
401 5 0.5 0.5 0.0769231
402 5 0.5625 0.5625 0.0769231
403 5 0.5625 0.5 0.0961538
404 5 0.5 0.5625 0.0961538
405 5 0.625 0.5 0.0769231
406 5 0.6875 0.5625 0.0769231
407 5 0.6875 0.5 0.0961538
408 5 0.625 0.5625 0.0961538
433 5 0.5 0.625 0.0769231
434 5 0.5625 0.6875 0.0769231
435 5 0.5625 0.625 0.0961538
436 5 0.5 0.6875 0.0961538
437 5 0.625 0.625 0.0769231
438 5 0.6875 0.6875 0.0769231
439 5 0.6875 0.625 0.0961538
440 5 0.625 0.6875 0.0961538
585 5 0.5 0.5 0.115385
586 5 0.5625 0.5625 0.115385
587 5 0.625 0.5 0.115385
588 5 0.6875 0.5625 0.115385
601 5 0.5 0.625 0.115385
602 5 0.5625 0.6875 0.115385
603 5 0.625 0.625 0.115385
604 5 0.6875 0.6875 0.115385
409 5 0.75 0.5 0.0769231
410 5 0.8125 0.5625 0.0769231
411 5 0.8125 0.5 0.0961538
412 5 0.75 0.5625 0.0961538
413 5 0.875 0.5 0.0769231
414 5 0.9375 0.5625 0.0769231
415 5 0.9375 0.5 0.0961538
416 5 0.875 0.5625 0.0961538
441 5 0.75 0.625 0.0769231
442 5 0.8125 0.6875 0.0769231
443 5 0.8125 0.625 0.0961538
444 5 0.75 0.6875 0.0961538
445 5 0.875 0.625 0.0769231
446 5 0.9375 0.6875 0.0769231
447 5 0.9375 0.625 0.0961538
448 5 0.875 0.6875 0.0961538
589 5 0.75 0.5 0.115385
590 5 0.8125 0.5625 0.115385
591 5 0.875 0.5 0.115385
592 5 0.9375 0.5625 0.115385
605 5 0.75 0.625 0.115385
606 5 0.8125 0.6875 0.115385
607 5 0.875 0.625 0.115385
608 5 0.9375 0.6875 0.115385
449 5 0 0.75 0.0769231
450 5 0.0625 0.8125 0.0769231
451 5 0.0625 0.75 0.0961538
452 5 0 0.8125 0.0961538
453 5 0.125 0.75 0.0769231
454 5 0.1875 0.8125 0.0769231
455 5 0.1875 0.75 0.0961538
456 5 0.125 0.8125 0.0961538
481 5 0 0.875 0.0769231
482 5 0.0625 0.9375 0.0769231
483 5 0.0625 0.875 0.0961538
484 5 0 0.9375 0.0961538
485 5 0.125 0.875 0.0769231
486 5 0.1875 0.9375 0.0769231
487 5 0.1875 0.875 0.0961538
488 5 0.125 0.9375 0.0961538
609 5 0 0.75 0.115385
610 5 0.0625 0.8125 0.115385
611 5 0.125 0.75 0.115385
612 5 0.1875 0.8125 0.115385
625 5 0 0.875 0.115385
626 5 0.0625 0.9375 0.115385
627 5 0.125 0.875 0.115385
628 5 0.1875 0.9375 0.115385
457 5 0.25 0.75 0.0769231
458 5 0.3125 0.8125 0.0769231
459 5 0.3125 0.75 0.0961538
460 5 0.25 0.8125 0.0961538
461 5 0.375 0.75 0.0769231
462 5 0.4375 0.8125 0.0769231
463 5 0.4375 0.75 0.0961538
464 5 0.375 0.8125 0.0961538
489 5 0.25 0.875 0.0769231
490 5 0.3125 0.9375 0.0769231
491 5 0.3125 0.875 0.0961538
492 5 0.25 0.9375 0.0961538
493 5 0.375 0.875 0.0769231
494 5 0.4375 0.9375 0.0769231
495 5 0.4375 0.875 0.0961538
496 5 0.375 0.9375 0.0961538
613 5 0.25 0.75 0.115385
614 5 0.3125 0.8125 0.115385
615 5 0.375 0.75 0.115385
616 5 0.4375 0.8125 0.115385
629 5 0.25 0.875 0.115385
630 5 0.3125 0.9375 0.115385
631 5 0.375 0.875 0.115385
632 5 0.4375 0.9375 0.115385
465 5 0.5 0.75 0.0769231
466 5 0.5625 0.8125 0.0769231
467 5 0.5625 0.75 0.0961538
468 5 0.5 0.8125 0.0961538
469 5 0.625 0.75 0.0769231
470 5 0.6875 0.8125 0.0769231
471 5 0.6875 0.75 0.0961538
472 5 0.625 0.8125 0.0961538
497 5 0.5 0.875 0.0769231
498 5 0.5625 0.9375 0.0769231
499 5 0.5625 0.875 0.0961538
500 5 0.5 0.9375 0.0961538
501 5 0.625 0.875 0.0769231
502 5 0.6875 0.9375 0.0769231
503 5 0.6875 0.875 0.0961538
504 5 0.625 0.9375 0.0961538
617 5 0.5 0.75 0.115385
618 5 0.5625 0.8125 0.115385
619 5 0.625 0.75 0.115385
620 5 0.6875 0.8125 0.115385
633 5 0.5 0.875 0.115385
634 5 0.5625 0.9375 0.115385
635 5 0.625 0.875 0.115385
636 5 0.6875 0.9375 0.115385
473 5 0.75 0.75 0.0769231
474 5 0.8125 0.8125 0.0769231
475 5 0.8125 0.75 0.0961538
476 5 0.75 0.8125 0.0961538
477 5 0.875 0.75 0.0769231
478 5 0.9375 0.8125 0.0769231
479 5 0.9375 0.75 0.0961538
480 5 0.875 0.8125 0.0961538
505 5 0.75 0.875 0.0769231
506 5 0.8125 0.9375 0.0769231
507 5 0.8125 0.875 0.0961538
508 5 0.75 0.9375 0.0961538
509 5 0.875 0.875 0.0769231
510 5 0.9375 0.9375 0.0769231
511 5 0.9375 0.875 0.0961538
512 5 0.875 0.9375 0.0961538
621 5 0.75 0.75 0.115385
622 5 0.8125 0.8125 0.115385
623 5 0.875 0.75 0.115385
624 5 0.9375 0.8125 0.115385
637 5 0.75 0.875 0.115385
638 5 0.8125 0.9375 0.115385
639 5 0.875 0.875 0.115385
640 5 0.9375 0.9375 0.115385
1281 1 0.00223088 0.0118321 0.154214
1285 2 0.148314 0.00299338 0.155597
1286 2 0.103566 0.00885717 0.151737
1306 2 0.0101848 0.108579 0.149372
1308 1 0.124533 0.113887 0.155312
1309 2 0.148448 0.128547 0.152388
1310 2 0.102017 0.132524 0.153843
1311 1 0.243042 0.122148 0.150929
1313 2 0.236622 0.140522 0.157798
1332 1 0.117602 0.240425 0.153849
1333 2 0.147219 0.240451 0.153846
1335 1 0.242171 0.245799 0.151319
1336 2 0.240323 0.243794 0.160393
1474 2 0.0106498 0.0158986 0.187758
1476 1 0.122019 0.0114706 0.193058
1477 2 0.149033 0.000452296 0.191491
1480 2 0.243899 0.0233226 0.191717
1498 2 0.0225801 0.116462 0.191863
1500 1 0.119738 0.114483 0.191431
1501 2 0.142328 0.118994 0.197158
1502 2 0.112915 0.141484 0.188331
1503 1 0.241873 0.116096 0.192628
1505 2 0.236699 0.145097 0.191689
1522 2 0.0187189 0.249668 0.197018
1524 1 0.116277 0.241622 0.1922
1525 2 0.145576 0.237298 0.192191
1527 1 0.244625 0.240239 0.190856
1288 2 0.250453 0.015279 0.14808
1292 2 0.374573 0.0225289 0.156548
1294 2 0.483729 0.00712389 0.158896
1312 2 0.27031 0.11232 0.1528
1314 1 0.374182 0.125415 0.157558
1315 2 0.362784 0.144461 0.151525
1316 2 0.388031 0.105126 0.152468
1317 1 0.497553 0.113158 0.15371
1319 2 0.489502 0.132564 0.160133
1339 2 0.355789 0.236405 0.152134
1343 2 0.497003 0.23347 0.159199
1482 1 0.385096 0.00420299 0.193901
1483 2 0.360538 0.0193196 0.191825
1487 2 0.478691 0.011304 0.192841
1504 2 0.271398 0.113773 0.192607
1506 1 0.367442 0.116862 0.19083
1507 2 0.362745 0.145832 0.192053
1508 2 0.394785 0.112275 0.194034
1511 2 0.480702 0.115324 0.195662
1529 2 0.253189 0.244447 0.199483
1530 1 0.363036 0.24827 0.192145
1531 2 0.383403 0.240335 0.185996
1296 1 0.63024 0.00277992 0.150601
1298 2 0.604313 0.0125252 0.153827
1318 2 0.512936 0.129234 0.147696
1320 1 0.631296 0.135138 0.154461
1321 2 0.623961 0.114193 0.160495
1322 2 0.619766 0.125707 0.146585
1323 1 0.744219 0.118813 0.156506
1325 2 0.737789 0.145804 0.153319
1345 2 0.629385 0.235289 0.148096
1489 2 0.638765 0.00511977 0.19822
1493 2 0.744086 0.0178402 0.19699
1509 1 0.506396 0.115469 0.19113
1510 2 0.512926 0.144172 0.190127
1512 1 0.622042 0.12834 0.188847
1513 2 0.612947 0.1404 0.196685
1514 2 0.64 0.106272 0.191378
1516 2 0.734445 0.106937 0.193563
1533 1 0.501067 0.247805 0.195954
1535 2 0.522231 0.246415 0.189594
1537 2 0.62336 0.241543 0.185355
1538 2 0.626501 0.24647 0.199655
1539 1 0.745089 0.23917 0.192996
1300 2 0.75732 0.0229377 0.153149
1303 2 0.887511 0.0140505 0.158522
1305 1 0.99373 0.118454 0.156312
1307 2 0.996062 0.147942 0.155864
1324 2 0.767971 0.11036 0.151724
1326 1 0.864982 0.128147 0.151996
1327 2 0.867041 0.111098 0.159421
1328 2 0.89294 0.135766 0.150114
1330 2 0.996134 0.24357 0.16092
1331 2 0.997812 0.246033 0.146537
1348 2 0.76509 0.23201 0.152065
1350 1 0.886845 0.249858 0.153087
1351 2 0.873859 0.249109 0.161274
1473 1 0.999269 0.00577057 0.195572
1491 1 0.752718 0.00564382 0.189122
1496 2 0.875993 0.0240808 0.192922
1497 1 0.993072 0.115104 0.192522
1499 2 0.984322 0.143398 0.192538
1515 1 0.755148 0.127034 0.195618
1517 2 0.760426 0.141036 0.187754
1518 1 0.871997 0.11437 0.190788
1519 2 0.895917 0.120681 0.195798
1520 2 0.857075 0.139909 0.190332
1521 1 0.996592 0.238421 0.192047
1540 2 0.757408 0.248629 0.185237
1542 1 0.869535 0.240021 0.193575
4929 3 0.961093 0.0978167 0.158021
1329 1 0.00607654 0.260435 0.154082
1334 2 0.110152 0.269089 0.153843
1353 1 0.00689711 0.374876 0.150787
1355 2 0.0155443 0.371367 0.159436
1356 1 0.12335 0.375828 0.150167
1357 2 0.122168 0.35148 0.155342
1358 2 0.129476 0.397696 0.156016
1359 1 0.243269 0.365079 0.153342
1361 2 0.236021 0.393125 0.151444
1379 2 0.0204426 0.487383 0.152989
1380 1 0.123844 0.488603 0.155045
1382 2 0.138697 0.498223 0.147738
1526 2 0.113115 0.271049 0.192532
1545 1 0.0106577 0.379465 0.193412
1547 2 0.00540024 0.361058 0.186459
1548 1 0.119462 0.379627 0.189319
1549 2 0.142066 0.3605 0.189498
1550 2 0.113452 0.38489 0.198094
1551 1 0.238413 0.373814 0.193316
1552 2 0.249046 0.381402 0.185138
1570 2 0.0126218 0.481271 0.194968
1572 1 0.132077 0.494311 0.194768
1573 2 0.107717 0.483923 0.190688
1337 2 0.267477 0.260391 0.149817
1338 1 0.370302 0.260646 0.154867
1340 2 0.398892 0.252988 0.154541
1342 2 0.498143 0.257058 0.146752
1360 2 0.270685 0.366759 0.15675
1362 1 0.378915 0.36564 0.151817
1363 2 0.376005 0.393856 0.149197
1364 2 0.370094 0.365469 0.160516
1365 1 0.492281 0.365712 0.154077
1367 2 0.485846 0.394609 0.153823
1384 2 0.2568 0.483414 0.158841
1387 2 0.366474 0.496455 0.146969
1388 2 0.393037 0.499565 0.158801
1389 1 0.488215 0.497757 0.15336
1528 2 0.252166 0.265278 0.186578
1532 2 0.378517 0.261389 0.198782
1534 2 0.476706 0.255772 0.191389
1553 2 0.262498 0.36978 0.198472
1554 1 0.369072 0.365404 0.193655
1555 2 0.397578 0.367064 0.191237
1556 2 0.358328 0.392496 0.192036
1557 1 0.489654 0.370039 0.191126
1575 1 0.252338 0.48813 0.192377
1578 1 0.3813 0.489951 0.193045
1580 2 0.353325 0.496045 0.195376
1341 1 0.504872 0.259508 0.155594
1344 1 0.63247 0.259363 0.153319
1346 2 0.613172 0.255383 0.160122
1349 2 0.733237 0.266353 0.151989
1366 2 0.521844 0.364645 0.153639
1368 1 0.617932 0.365232 0.15416
1369 2 0.647499 0.366142 0.153712
1370 2 0.609543 0.39359 0.153668
1373 2 0.726367 0.374967 0.155425
1391 2 0.510515 0.49134 0.147698
1392 1 0.626769 0.489004 0.152391
1394 2 0.609729 0.496273 0.159501
1395 1 0.741675 0.491525 0.15314
1536 1 0.625139 0.262031 0.191912
1541 2 0.747485 0.262161 0.198693
1558 2 0.50786 0.359966 0.197611
1559 2 0.502448 0.394977 0.188182
1560 1 0.614219 0.369589 0.192599
1561 2 0.640681 0.356776 0.191502
1562 2 0.62006 0.398615 0.192822
1563 1 0.742474 0.370035 0.189825
1565 2 0.736457 0.37803 0.198402
1581 1 0.503363 0.491405 0.1899
1585 2 0.637988 0.480017 0.19357
1347 1 0.75168 0.251643 0.157498
1352 2 0.86434 0.251033 0.147175
1354 2 0.977584 0.378757 0.151304
1371 1 0.754993 0.381599 0.156562
1372 2 0.768658 0.368458 0.149561
1374 1 0.878155 0.37322 0.150294
1375 2 0.860216 0.394127 0.153639
1376 2 0.88664 0.357646 0.157592
1377 1 0.991232 0.49226 0.152892
1396 2 0.771087 0.489217 0.152341
1398 1 0.881113 0.489854 0.153087
1399 2 0.869196 0.498003 0.161044
1523 2 0.984677 0.261868 0.187857
1543 2 0.886024 0.25929 0.198282
1544 2 0.869421 0.250652 0.18507
1546 2 0.983981 0.384494 0.197056
1564 2 0.771041 0.376917 0.188687
1566 1 0.875218 0.380362 0.188971
1567 2 0.897914 0.375983 0.194668
1568 2 0.851869 0.368675 0.193272
1569 1 0.998788 0.497628 0.188676
1587 1 0.752209 0.496434 0.188816
1588 2 0.754171 0.480319 0.196437
1590 1 0.86571 0.494982 0.190489
1591 2 0.874397 0.489823 0.199055
4939 3 0.781487 0.460048 0.1713
1381 2 0.112454 0.513132 0.15876
1385 2 0.239326 0.506131 0.147441
1402 2 0.0232533 0.621562 0.152097
1404 1 0.114977 0.618569 0.153187
1405 2 0.122043 0.633468 0.160757
1406 2 0.137943 0.622939 0.147592
1409 2 0.225913 0.627138 0.153748
1426 2 0.0236736 0.745059 0.153861
1429 2 0.141554 0.744234 0.14872
1430 2 0.109878 0.743854 0.159337
1431 1 0.246634 0.748454 0.15739
1574 2 0.135232 0.521745 0.191475
1577 2 0.241563 0.504904 0.199116
1593 1 0.0104885 0.629341 0.193597
1595 2 0.00322681 0.601042 0.192104
1596 1 0.117916 0.629068 0.195054
1597 2 0.116064 0.635317 0.186165
1598 2 0.140994 0.610631 0.195714
1599 1 0.2428 0.63472 0.19221
1601 2 0.245565 0.613533 0.1859
1618 2 0.0215555 0.742537 0.189836
1620 1 0.115346 0.743793 0.193487
1621 2 0.141404 0.733014 0.190702
1623 1 0.240199 0.744401 0.190967
1383 1 0.253888 0.510494 0.155262
1386 1 0.365454 0.503995 0.155776
1407 1 0.253542 0.629171 0.150525
1408 2 0.270558 0.618706 0.157253
1410 1 0.381347 0.618488 0.15139
1411 2 0.391555 0.638627 0.157287
1412 2 0.352121 0.617861 0.152852
1413 1 0.493783 0.614706 0.154257
1415 2 0.483159 0.642343 0.154055
1432 2 0.272636 0.741531 0.153584
1434 1 0.375274 0.740265 0.151637
1435 2 0.357991 0.744903 0.158898
1576 2 0.256108 0.506922 0.18543
1579 2 0.390398 0.513966 0.188505
1583 2 0.47683 0.504338 0.190645
1600 2 0.261608 0.626783 0.198812
1602 1 0.367632 0.632915 0.193978
1603 2 0.376963 0.606784 0.197165
1604 2 0.380378 0.63533 0.185786
1607 2 0.485 0.624488 0.198143
1624 2 0.268212 0.734794 0.190865
1626 1 0.36491 0.748489 0.194309
1627 2 0.390441 0.73368 0.195061
1629 1 0.491957 0.741108 0.191807
1390 2 0.501226 0.510895 0.160479
1393 2 0.638509 0.514683 0.149641
1397 2 0.737207 0.519227 0.156055
1414 2 0.523035 0.617913 0.153229
1416 1 0.632672 0.634138 0.154466
1417 2 0.629554 0.609274 0.159323
1418 2 0.612802 0.631622 0.147752
1419 1 0.740283 0.627496 0.151765
1421 2 0.746801 0.602045 0.155971
1437 1 0.507835 0.745765 0.151326
1441 2 0.644488 0.737376 0.155926
1443 1 0.748597 0.741946 0.151102
1582 2 0.519819 0.504225 0.196369
1584 1 0.633092 0.508988 0.192426
1586 2 0.60395 0.511028 0.190927
1589 2 0.743628 0.523233 0.191657
1605 1 0.510945 0.623005 0.193772
1606 2 0.504095 0.6275 0.185014
1608 1 0.618694 0.61468 0.19242
1609 2 0.648129 0.617946 0.192417
1610 2 0.608154 0.642336 0.192086
1613 2 0.73164 0.64031 0.193432
1630 2 0.521114 0.740344 0.190225
1632 1 0.619524 0.73923 0.192107
1635 1 0.743082 0.743523 0.194623
1378 2 0.988293 0.520328 0.155655
1400 2 0.874713 0.512106 0.147405
1401 1 0.99499 0.614035 0.153529
1403 2 0.981738 0.639363 0.155912
1420 2 0.76288 0.645467 0.153795
1422 1 0.874174 0.616283 0.156416
1423 2 0.877748 0.613107 0.147422
1424 2 0.873075 0.645578 0.15771
1425 1 0.995425 0.742927 0.156519
1444 2 0.772764 0.74678 0.156155
1446 1 0.874699 0.746027 0.157362
1447 2 0.858089 0.736968 0.150351
1571 2 0.988586 0.521092 0.193265
1592 2 0.884859 0.515176 0.187372
1594 2 0.986323 0.644633 0.191227
1611 1 0.752615 0.626179 0.188691
1612 2 0.765754 0.608515 0.194786
1614 1 0.879333 0.61425 0.191239
1615 2 0.853875 0.627019 0.188739
1616 2 0.891809 0.633691 0.196941
1617 1 0.994074 0.739792 0.193127
1636 2 0.759709 0.733599 0.187728
1638 1 0.867677 0.740897 0.193277
1640 2 0.894935 0.746561 0.196385
1283 2 0.0210427 0.989331 0.155481
1284 1 0.123113 0.988106 0.154206
1287 1 0.249198 0.98904 0.152288
1428 1 0.123563 0.761956 0.153481
1433 2 0.230717 0.760009 0.150577
1450 2 0.00250376 0.853606 0.150463
1452 1 0.118874 0.875062 0.150636
1453 2 0.12993 0.851657 0.155063
1454 2 0.126173 0.898281 0.155828
1455 1 0.243915 0.875863 0.157053
1456 2 0.245982 0.896111 0.150434
1478 2 0.103937 0.988119 0.192377
1479 1 0.247835 0.99726 0.195872
1622 2 0.118214 0.77317 0.192739
1625 2 0.241554 0.770784 0.195086
1641 1 0.00754772 0.882073 0.190376
1642 2 0.00668993 0.878005 0.199398
1644 1 0.131265 0.883709 0.194029
1645 2 0.121843 0.88334 0.185391
1646 2 0.121915 0.857983 0.197509
1648 2 0.242665 0.869332 0.185435
1649 2 0.245965 0.876925 0.199621
1289 2 0.250346 0.995641 0.161165
1290 1 0.384646 0.994905 0.155457
1291 2 0.365816 0.982547 0.14954
1436 2 0.391736 0.764796 0.150995
1438 2 0.478982 0.751333 0.150188
1457 2 0.260081 0.853029 0.154064
1458 1 0.379899 0.864207 0.154594
1459 2 0.385187 0.889988 0.158774
1460 2 0.359932 0.870766 0.148174
1461 1 0.499413 0.865945 0.156309
1463 2 0.476926 0.879623 0.152131
1481 2 0.258258 0.979407 0.189347
1484 2 0.379403 0.976493 0.191203
1628 2 0.369611 0.767825 0.18756
1631 2 0.486899 0.768515 0.194889
1647 1 0.261412 0.878757 0.191866
1650 1 0.371313 0.863565 0.191866
1651 2 0.393359 0.877411 0.187521
1652 2 0.360314 0.883982 0.197534
1655 2 0.482209 0.880216 0.18753
1293 1 0.509861 0.997338 0.155842
1295 2 0.506447 0.995528 0.146808
1297 2 0.640467 0.984705 0.157098
1301 2 0.738874 0.982441 0.157649
1439 2 0.513212 0.752886 0.160015
1440 1 0.622346 0.756835 0.156808
1442 2 0.608156 0.755814 0.148815
1445 2 0.728634 0.761244 0.154272
1462 2 0.523659 0.879399 0.153107
1464 1 0.625147 0.862901 0.153842
1465 2 0.64382 0.881272 0.14959
1466 2 0.606034 0.880782 0.158106
1469 2 0.738673 0.854014 0.155082
1485 1 0.500212 0.992492 0.195227
1486 2 0.521097 0.996176 0.188866
1488 1 0.632649 0.995033 0.189861
1490 2 0.603615 0.999829 0.188833
1633 2 0.634456 0.753301 0.185535
1634 2 0.621 0.75743 0.199281
1637 2 0.747183 0.772854 0.194582
1653 1 0.507421 0.867759 0.190388